 Gaussian 16, Revision C.01,
 Gaussian 16:  ES64L-G16RevC.01  3-Jul-2019

 ----------------------------------------------------------------------
 # MP2/6-31G* Opt=(Redundant,maxstep=5,calcFC) vshift=1000 integral=(gr
 id=superfine) SCF=(Tight,xqc) Geom=PrintInputOrient
 ----------------------------------------------------------------------

 --------------------------------------------------
 <qmtool> simtype="Geometry optimization" </qmtool>
 --------------------------------------------------
 Symbolic Z-matrix:
 Charge = -1 Multiplicity = 2

 SCF Done:  E(UHF) =  -840.028789156     A.U. after   33 cycles
 SCF Done:  E(UHF) =  -840.028894952     a.u. after    8 cycles
 E2 =    -0.2509127347D+01 EUMP2 =    -0.84253802229890D+03
 E2 =    -0.2509127347D+01 EUMP2 =    -0.84253802229890D+03

  Exact polarizability:     154.725    -228.522    -441.036     -15.637     -23.123     109.473
 Approx polarizability:     153.427       9.120     164.432      -5.834       4.542     106.149

 SCF Done:  E(UHF) =  -840.028723881     A.U. after   33 cycles
 SCF Done:  E(UHF) =  -840.028772233     a.u. after    8 cycles
 E2 =    -0.2512854230D+01 EUMP2 =    -0.84254162646294D+03
 SCF Done:  E(UHF) =  -840.030487992     A.U. after   33 cycles
 SCF Done:  E(UHF) =  -840.030499656     a.u. after    5 cycles
 E2 =    -0.2513807766D+01 EUMP2 =    -0.84254430742148D+03
 SCF Done:  E(UHF) =  -839.999420458     A.U. after   33 cycles
 SCF Done:  E(UHF) =  -839.999787621     a.u. after    8 cycles
 E2 =    -0.2517884933D+01 EUMP2 =    -0.84251767255399D+03
 SCF Done:  E(UHF) =  -840.016754944     A.U. after   33 cycles
 SCF Done:  E(UHF) =  -840.016756377     a.u. after    7 cycles
 E2 =    -0.2516131133D+01 EUMP2 =    -0.84253288750935D+03
 E2 =    -0.2503215073D+01 EUMP2 =    -0.84252905104154D+03
 E2 =    -0.2513796617D+01 EUMP2 =    -0.84254430431260D+03
 E2 =    -0.2513806526D+01 EUMP2 =    -0.84254430717783D+03
 E2 =    -0.2513807601D+01 EUMP2 =    -0.84254430738199D+03
 E2 =    -0.2514001180D+01 EUMP2 =    -0.84254560920360D+03
 E2 =    -0.2508265458D+01 EUMP2 =    -0.84253520342011D+03
 E2 =    -0.2514934874D+01 EUMP2 =    -0.84254678347256D+03
 E2 =    -0.2512158184D+01 EUMP2 =    -0.84254436861767D+03
 E2 =    -0.2515019445D+01 EUMP2 =    -0.84254699630319D+03
 E2 =    -0.2514653280D+01 EUMP2 =    -0.84254761144277D+03
 E2 =    -0.2515248756D+01 EUMP2 =    -0.84254764641576D+03
 E2 =    -0.2515495319D+01 EUMP2 =    -0.84254778418077D+03
 E2 =    -0.2515629938D+01 EUMP2 =    -0.84254793378710D+03
 E2 =    -0.2516739097D+01 EUMP2 =    -0.84254792294577D+03
 E2 =    -0.2515989631D+01 EUMP2 =    -0.84254810985430D+03
 E2 =    -0.2515871871D+01 EUMP2 =    -0.84254816192318D+03
 E2 =    -0.2515977437D+01 EUMP2 =    -0.84254817840954D+03
 E2 =    -0.2515727908D+01 EUMP2 =    -0.84254819144817D+03
 E2 =    -0.2515901366D+01 EUMP2 =    -0.84254819834939D+03
 SCF Done:  E(UHF) =  -840.032382906     a.u. after    3 cycles
 E2 =    -0.2515821381D+01 EUMP2 =    -0.84254820428705D+03
 SCF Done:  E(UHF) =  -840.032359399     A.U. after   33 cycles
 SCF Done:  E(UHF) =  -840.032359401     a.u. after    3 cycles
 E2 =    -0.2515847009D+01 EUMP2 =    -0.84254820641037D+03
 SCF Done:  E(UHF) =  -840.032349237     A.U. after   20 cycles
 E2 =    -0.2515857422D+01 EUMP2 =    -0.84254820665862D+03
 SCF Done:  E(UHF) =  -840.032355372     A.U. after   33 cycles
 SCF Done:  E(UHF) =  -840.032355374     a.u. after    2 cycles
 E2 =    -0.2515852287D+01 EUMP2 =    -0.84254820766052D+03
 SCF Done:  E(UHF) =  -840.032363237     A.U. after   27 cycles
 E2 =    -0.2515845142D+01 EUMP2 =    -0.84254820837983D+03
 SCF Done:  E(UHF) =  -840.032376636     A.U. after   33 cycles
 SCF Done:  E(UHF) =  -840.032376636     a.u. after    2 cycles
 E2 =    -0.2515831400D+01 EUMP2 =    -0.84254820803546D+03
 SCF Done:  E(UHF) =  -840.032384964     A.U. after   31 cycles
 E2 =    -0.2515822522D+01 EUMP2 =    -0.84254820748562D+03
 Optimization completed.
    -- Stationary point found.

                         Standard orientation:
 ---------------------------------------------------------------------
 Center     Atomic      Atomic             Coordinates (Angstroms)
 Number     Number       Type             X           Y           Z
 ---------------------------------------------------------------------
      1          6           0        0.135324   -1.142197   -0.616090
      2          6           0        1.100794   -2.248548   -0.946085
      3          6           0       -1.225187   -1.555773   -0.302448
      4          8           0       -1.593239   -2.776173   -0.320576
      5          6           0       -2.138010   -0.485136    0.077044
      6          8           0       -3.458221   -0.785679    0.361530
      7          6           0       -1.773703    0.844474    0.044391
      8          8           0       -2.671729    1.806465    0.473898
      9          6           0       -0.419190    1.251550   -0.296406
     10          8           0       -0.056508    2.464988   -0.266867
     11          6           0        0.495967    0.188969   -0.688883
     12          6           0        1.888856    0.640993   -1.056928
     13          1           0        2.028162   -2.153690   -0.369417
     14          1           0        0.611210   -3.196184   -0.712412
     15          1           0        1.374294   -2.257026   -2.010030
     16          6           0       -3.587609   -1.656460    1.489458
     17          1           0       -3.040335   -2.583321    1.313254
     18          1           0       -3.224341   -1.158881    2.399036
     19          1           0       -4.658650   -1.851601    1.593741
     20          6           0       -3.032266    2.707915   -0.572814
     21          1           0       -3.520278    2.168330   -1.394758
     22          1           0       -3.744148    3.411749   -0.133185
     23          1           0       -2.154211    3.243659   -0.940346
     24          1           0        2.348539   -0.067736   -1.751815
     25          1           0        1.797883    1.611103   -1.561170
     26          6           0        2.712761    0.824919    0.185973
     27          1           0        2.259918    1.512585    0.901440
     28          6           0        4.653233   -0.708166   -0.359524
     29          6           0        3.885141    0.247866    0.513046
     30          1           0        4.803107   -1.665847    0.154962
     31          1           0        4.149663   -0.910461   -1.305658
     32          6           0        4.538494    0.539377    1.838771
     33          1           0        3.943907    1.244294    2.426550
     34          1           0        4.661533   -0.378803    2.428102
     35          1           0        5.541935    0.964894    1.702913
     36          1           0        5.651760   -0.308573   -0.582131
 ---------------------------------------------------------------------

 The electronic state is 2-A.
 Alpha  occ. eigenvalues --  -20.43444 -20.43441 -20.37538 -20.37003 -11.14381
 Alpha  occ. eigenvalues --  -11.14115 -11.13993 -11.13968 -11.13787 -11.13390
 Alpha  occ. eigenvalues --  -11.12561 -11.12528 -11.12272 -11.11133 -11.09973
 Alpha  occ. eigenvalues --  -11.09259 -11.08724 -11.08693  -1.25822  -1.23639
 Alpha  occ. eigenvalues --   -1.19026  -1.18751  -0.99669  -0.97293  -0.90815
 Alpha  occ. eigenvalues --   -0.87888  -0.84252  -0.82201  -0.81124  -0.78670
 Alpha  occ. eigenvalues --   -0.75383  -0.73683  -0.63838  -0.63174  -0.59801
 Alpha  occ. eigenvalues --   -0.56931  -0.53874  -0.52565  -0.51666  -0.50258
 Alpha  occ. eigenvalues --   -0.49619  -0.49170  -0.48222  -0.47984  -0.47711
 Alpha  occ. eigenvalues --   -0.45186  -0.44402  -0.44240  -0.43814  -0.42585
 Alpha  occ. eigenvalues --   -0.42198  -0.41514  -0.40979  -0.40076  -0.39698
 Alpha  occ. eigenvalues --   -0.38185  -0.37841  -0.37095  -0.36536  -0.35983
 Alpha  occ. eigenvalues --   -0.32253  -0.31517  -0.26668  -0.25632  -0.25317
 Alpha  occ. eigenvalues --   -0.21844  -0.17561  -0.09704
 Alpha virt. eigenvalues --    0.27695   0.30362   0.32283   0.33091   0.36069
 Alpha virt. eigenvalues --    0.37889   0.38756   0.39186   0.39591   0.41625
 Alpha virt. eigenvalues --    0.41822   0.42113   0.42795   0.43591   0.43849

  Beta  occ. eigenvalues --  -20.43436 -20.43435 -20.35771 -20.35415 -11.14384
  Beta  occ. eigenvalues --  -11.14119 -11.13951 -11.13920 -11.13703 -11.13313
  Beta  occ. eigenvalues --  -11.12562 -11.12531 -11.12252 -11.11139 -11.09995
  Beta  occ. eigenvalues --  -11.09103 -11.08729 -11.08615  -1.25678  -1.23424
  Beta  occ. eigenvalues --   -1.15592  -1.15039  -0.99414  -0.96393  -0.90539
  Beta  occ. eigenvalues --   -0.87500  -0.84252  -0.81557  -0.80933  -0.78295
  Beta  occ. eigenvalues --   -0.74112  -0.73137  -0.63256  -0.62535  -0.59724
  Beta  occ. eigenvalues --   -0.56796  -0.53665  -0.52276  -0.51426  -0.49918
  Beta  occ. eigenvalues --   -0.49554  -0.49012  -0.48041  -0.47784  -0.47031
  Beta  occ. eigenvalues --   -0.44585  -0.44192  -0.43410  -0.42877  -0.42443
  Beta  occ. eigenvalues --   -0.41671  -0.41270  -0.40455  -0.38499  -0.37634
  Beta  occ. eigenvalues --   -0.36897  -0.36339  -0.36015  -0.34657  -0.32552
  Beta  occ. eigenvalues --   -0.30456  -0.28806  -0.24216  -0.24105  -0.21786
  Beta  occ. eigenvalues --   -0.17180  -0.16041
  Beta virt. eigenvalues --    0.21368   0.29557   0.31857   0.33115   0.36083
  Beta virt. eigenvalues --    0.37838   0.38329   0.39010   0.39222   0.40990
  Beta virt. eigenvalues --    0.41759   0.41879   0.42284   0.42959   0.43796

 Mulliken charges and spin densities:
               1          2
     1  C   -0.043476   0.088288
     2  C   -0.526418  -0.017848
     3  C    0.418335   0.036434
     4  O   -0.703076   0.375680
     5  C    0.255538   0.046472
     6  O   -0.661106  -0.000578
     7  C    0.247258   0.039426
     8  O   -0.659288  -0.000985
     9  C    0.445143   0.043763
    10  O   -0.715574   0.336543
    11  C   -0.099286   0.056600
    12  C   -0.375207  -0.011637
    13  H    0.152523   0.003383
    14  H    0.208394   0.000065
    15  H    0.136011   0.005615
    16  C   -0.168106  -0.001185
    17  H    0.206540  -0.000470
    18  H    0.127422  -0.000408
    19  H    0.130334   0.000181
    20  C   -0.160487  -0.000916
    21  H    0.130867  -0.000409
    22  H    0.131712   0.000400
    23  H    0.192230  -0.000413
    24  H    0.156742   0.000705
    25  H    0.196996   0.000604
    26  C   -0.176281  -0.008497
    27  H    0.201364  -0.000393
    28  C   -0.503632  -0.001369
    29  C    0.041944   0.010702
    30  H    0.148435   0.000435
    31  H    0.173981   0.000031
    32  C   -0.495850  -0.001233
    33  H    0.167653   0.000054
    34  H    0.143912   0.000427
    35  H    0.135029   0.000296
    36  H    0.139421   0.000235
 Sum of Mulliken charges =  -1.00000   1.00000

 Dipole moment (field-independent basis, Debye):
    X=              4.3440    Y=              0.0966    Z=              0.4309  Tot=              4.3664
 Quadrupole moment (field-independent basis, Debye-Ang):
   XX=           -134.6186   YY=           -139.1398   ZZ=           -110.6093
   XY=             -8.0831   XZ=             -0.7351   YZ=             -5.6108

 Normal termination of Gaussian 16 at Wed Nov 17 17:57:14 2021.
