 Gaussian 16, Revision C.01,
 Gaussian 16:  ES64L-G16RevC.01  3-Jul-2019

 ----------------------------------------------------------------------
 # MP2/6-31G* Geom=(AllCheck,ModRedundant) Freq NoSymm IOp(7/33=1) SCF=
 Tight Guess=Read
 ----------------------------------------------------------------------

 Structure from the checkpoint file:  "Q1H-opt-4.chk"
 --------------------------------------------------
 <qmtool> simtype="Geometry optimization" </qmtool>
 --------------------------------------------------
 Charge = -1 Multiplicity = 2

                          Input orientation:
 ---------------------------------------------------------------------
 Center     Atomic      Atomic             Coordinates (Angstroms)
 Number     Number       Type             X           Y           Z
 ---------------------------------------------------------------------
      1          6           0       -0.146155   -1.471808   -0.839979
      2          6           0        0.417057   -2.797709   -1.275665
      3          6           0       -1.524570   -1.487857   -0.370806
      4          8           0       -2.228055   -2.550638   -0.343034
      5          6           0       -2.042496   -0.212737    0.108096
      6          8           0       -3.353266   -0.131193    0.543352
      7          6           0       -1.316761    0.957244    0.030001
      8          8           0       -1.846346    2.122561    0.557192
      9          6           0        0.051064    0.969612   -0.465439
     10          8           0        0.748704    2.026916   -0.481238
     11          6           0        0.572089   -0.298066   -0.957530
     12          6           0        1.986337   -0.252814   -1.484577
     13          1           0        1.390456   -2.989936   -0.809728
     14          1           0       -0.295564   -3.572138   -0.984561
     15          1           0        0.556749   -2.851782   -2.363973
     16          6           0       -3.601939   -0.962351    1.681139
     17          1           0       -3.367779   -2.001299    1.445802
     18          1           0       -3.012233   -0.617519    2.541499
     19          1           0       -4.665339   -0.845731    1.908438
     20          6           0       -2.045852    3.120898   -0.443670
     21          1           0       -2.756589    2.768892   -1.202516
     22          1           0       -2.471582    3.985385    0.072903
     23          1           0       -1.097157    3.393719   -0.911246
     24          1           0        2.142449   -1.042015   -2.225702
     25          1           0        2.123186    0.717594   -1.977762
     26          6           0        2.960871   -0.350382   -0.345185
     27          1           0        2.807484    0.416063    0.415655
     28          6           0        4.304741   -2.357559   -1.105845
     29          6           0        3.946182   -1.248627   -0.153455
     30          1           0        4.228634   -3.333241   -0.609293
     31          1           0        3.662543   -2.378328   -1.987223
     32          6           0        4.798650   -1.196852    1.087517
     33          1           0        4.501238   -0.369418    1.737767
     34          1           0        4.716693   -2.129298    1.661391
     35          1           0        5.860575   -1.072535    0.835973
     36          1           0        5.344905   -2.254024   -1.442925
 ---------------------------------------------------------------------

 SCF Done:  E(UHF) =  -840.032384964     A.U. after    2 cycles
 E2 =    -0.2515822523D+01 EUMP2 =    -0.84254820748703D+03
 E2 =    -0.2515822523D+01 EUMP2 =    -0.84254820748703D+03

 Alpha  occ. eigenvalues --  -20.43444 -20.43441 -20.37538 -20.37003 -11.14381
 Alpha  occ. eigenvalues --  -11.14115 -11.13993 -11.13968 -11.13787 -11.13390
 Alpha  occ. eigenvalues --  -11.12561 -11.12528 -11.12272 -11.11133 -11.09973
 Alpha  occ. eigenvalues --  -11.09259 -11.08724 -11.08693  -1.25822  -1.23639
 Alpha  occ. eigenvalues --   -1.19026  -1.18751  -0.99669  -0.97293  -0.90815
 Alpha  occ. eigenvalues --   -0.87888  -0.84252  -0.82201  -0.81124  -0.78670
 Alpha  occ. eigenvalues --   -0.75383  -0.73683  -0.63838  -0.63174  -0.59801
 Alpha  occ. eigenvalues --   -0.56931  -0.53874  -0.52565  -0.51666  -0.50258
 Alpha  occ. eigenvalues --   -0.49619  -0.49170  -0.48222  -0.47984  -0.47711
 Alpha  occ. eigenvalues --   -0.45186  -0.44402  -0.44240  -0.43814  -0.42585
 Alpha  occ. eigenvalues --   -0.42198  -0.41514  -0.40979  -0.40076  -0.39698
 Alpha  occ. eigenvalues --   -0.38185  -0.37841  -0.37095  -0.36536  -0.35983
 Alpha  occ. eigenvalues --   -0.32253  -0.31517  -0.26668  -0.25632  -0.25317
 Alpha  occ. eigenvalues --   -0.21844  -0.17561  -0.09704
 Alpha virt. eigenvalues --    0.27695   0.30362   0.32283   0.33091   0.36069
 Alpha virt. eigenvalues --    0.37889   0.38756   0.39186   0.39591   0.41625
 Alpha virt. eigenvalues --    0.41822   0.42113   0.42795   0.43591   0.43849

  Beta  occ. eigenvalues --  -20.43436 -20.43435 -20.35771 -20.35415 -11.14384
  Beta  occ. eigenvalues --  -11.14119 -11.13951 -11.13920 -11.13703 -11.13313
  Beta  occ. eigenvalues --  -11.12562 -11.12531 -11.12252 -11.11139 -11.09995
  Beta  occ. eigenvalues --  -11.09103 -11.08729 -11.08615  -1.25678  -1.23424
  Beta  occ. eigenvalues --   -1.15592  -1.15039  -0.99414  -0.96393  -0.90539
  Beta  occ. eigenvalues --   -0.87500  -0.84252  -0.81557  -0.80933  -0.78295
  Beta  occ. eigenvalues --   -0.74112  -0.73137  -0.63256  -0.62535  -0.59724
  Beta  occ. eigenvalues --   -0.56796  -0.53665  -0.52276  -0.51426  -0.49918
  Beta  occ. eigenvalues --   -0.49554  -0.49012  -0.48041  -0.47784  -0.47031
  Beta  occ. eigenvalues --   -0.44585  -0.44192  -0.43410  -0.42877  -0.42443
  Beta  occ. eigenvalues --   -0.41671  -0.41270  -0.40455  -0.38499  -0.37634
  Beta  occ. eigenvalues --   -0.36897  -0.36339  -0.36015  -0.34657  -0.32552
  Beta  occ. eigenvalues --   -0.30456  -0.28806  -0.24216  -0.24105  -0.21786
  Beta  occ. eigenvalues --   -0.17180  -0.16041
  Beta virt. eigenvalues --    0.21368   0.29557   0.31857   0.33115   0.36083
  Beta virt. eigenvalues --    0.37838   0.38329   0.39010   0.39222   0.40990
  Beta virt. eigenvalues --    0.41759   0.41879   0.42284   0.42959   0.43796

 Mulliken charges and spin densities:
               1          2
     1  C   -0.043476   0.088286
     2  C   -0.526418  -0.017848
     3  C    0.418335   0.036436
     4  O   -0.703078   0.375679
     5  C    0.255538   0.046468
     6  O   -0.661106  -0.000579
     7  C    0.247258   0.039430
     8  O   -0.659288  -0.000985
     9  C    0.445143   0.043762
    10  O   -0.715573   0.336544
    11  C   -0.099286   0.056602
    12  C   -0.375207  -0.011637
    13  H    0.152523   0.003383
    14  H    0.208394   0.000065
    15  H    0.136011   0.005615
    16  C   -0.168106  -0.001185
    17  H    0.206540  -0.000470
    18  H    0.127422  -0.000408
    19  H    0.130334   0.000181
    20  C   -0.160487  -0.000916
    21  H    0.130867  -0.000408
    22  H    0.131712   0.000400
    23  H    0.192230  -0.000413
    24  H    0.156742   0.000705
    25  H    0.196996   0.000604
    26  C   -0.176281  -0.008498
    27  H    0.201364  -0.000393
    28  C   -0.503632  -0.001369
    29  C    0.041945   0.010702
    30  H    0.148435   0.000435
    31  H    0.173981   0.000031
    32  C   -0.495850  -0.001233
    33  H    0.167653   0.000054
    34  H    0.143912   0.000427
    35  H    0.135029   0.000296
    36  H    0.139421   0.000235
 Sum of Mulliken charges =  -1.00000   1.00000

 Dipole moment (field-independent basis, Debye):
    X=              3.6201    Y=              0.5550    Z=              0.9641  Tot=              3.7872
 Quadrupole moment (field-independent basis, Debye-Ang):
   XX=           -138.6815   YY=           -133.7778   ZZ=           -110.9252
   XY=             -9.9651   XZ=             -0.1390   YZ=             -5.0550

  Exact polarizability:   -3531.642   -5079.171   -6710.318     258.389     380.386      93.443
 Approx polarizability:     152.369       9.283     166.953      -8.309       2.907     108.632

                      1                      2                      3
                      A                      A                      A
 Frequencies --     30.6795                39.2564                64.6661
 Red. masses --      3.7425                 4.0628                 2.8298
 Frc consts  --      0.0021                 0.0037                 0.0070
 IR Inten    --      0.5722                 0.6107                 2.0012

                      4                      5                      6
                      A                      A                      A
 Frequencies --     82.6966                85.2566                91.7305
 Red. masses --      3.2553                 3.5270                 3.8011
 Frc consts  --      0.0131                 0.0151                 0.0188
 IR Inten    --     33.9890                13.1087                18.4794

                      7                      8                      9
                      A                      A                      A
 Frequencies --    102.2442               129.1971               146.6109
 Red. masses --      3.0634                 2.0173                 1.4782
 Frc consts  --      0.0189                 0.0198                 0.0187
 IR Inten    --     22.2499                 0.8288                 0.9397

                     10                     11                     12
                      A                      A                      A
 Frequencies --    160.6923               165.7045               168.5125
 Red. masses --      1.0603                 1.2310                 1.1061
 Frc consts  --      0.0161                 0.0199                 0.0185
 IR Inten    --      0.7742                 1.3093                 1.4167

                     13                     14                     15
                      A                      A                      A
 Frequencies --    187.9464               205.9489               241.2977
 Red. masses --      1.3213                 3.4058                 2.8712
 Frc consts  --      0.0275                 0.0851                 0.0985
 IR Inten    --      2.4109                46.5091               118.0665

                     16                     17                     18
                      A                      A                      A
 Frequencies --    253.0678               256.9800               288.4751
 Red. masses --      3.0745                 4.4501                 3.5105
 Frc consts  --      0.1160                 0.1731                 0.1721
 IR Inten    --     53.6181                36.7478                49.3109

                     19                     20                     21
                      A                      A                      A
 Frequencies --    334.0094               336.6540               357.1272
 Red. masses --      5.1125                 3.3015                 2.6571
 Frc consts  --      0.3360                 0.2205                 0.1997
 IR Inten    --     11.9898                83.5445               104.8123

                     22                     23                     24
                      A                      A                      A
 Frequencies --    371.0096               390.2046               402.9548
 Red. masses --      4.3981                 2.9455                 6.1203
 Frc consts  --      0.3567                 0.2642                 0.5855
 IR Inten    --    117.2204                21.4490                18.0411

                     25                     26                     27
                      A                      A                      A
 Frequencies --    414.7835               433.1357               455.8695
 Red. masses --      5.7717                 2.7937                 5.9879
 Frc consts  --      0.5851                 0.3088                 0.7332
 IR Inten    --    132.4360                 9.8505                50.8824

                     28                     29                     30
                      A                      A                      A
 Frequencies --    488.9059               513.1772               536.9828
 Red. masses --      4.1863                 5.4612                 3.9869
 Frc consts  --      0.5896                 0.8474                 0.6773
 IR Inten    --     75.3458                27.1209               129.0301

                     31                     32                     33
                      A                      A                      A
 Frequencies --    560.3295               631.6986               648.8503
 Red. masses --      5.4034                 7.0128                 7.4775
 Frc consts  --      0.9995                 1.6488                 1.8548
 IR Inten    --     28.2516               168.9984                37.4548

                     34                     35                     36
                      A                      A                      A
 Frequencies --    702.2565               724.7855               805.5204
 Red. masses --      4.2441                 6.8552                 2.0877
 Frc consts  --      1.2332                 2.1217                 0.7981
 IR Inten    --    191.4468               246.7717               986.5542

                     37                     38                     39
                      A                      A                      A
 Frequencies --    833.0426               877.9750               922.5802
 Red. masses --      6.5263                 1.8290                 2.5512
 Frc consts  --      2.6684                 0.8307                 1.2794
 IR Inten    --   5397.1644                27.3364                13.8263

                     40                     41                     42
                      A                      A                      A
 Frequencies --    956.6983               994.3424               997.8770
 Red. masses --      3.2755                 1.4410                 2.1751
 Frc consts  --      1.7663                 0.8394                 1.2761
 IR Inten    --    938.7895                17.3840               487.3202

                     43                     44                     45
                      A                      A                      A
 Frequencies --   1023.3342              1051.7648              1061.2475
 Red. masses --      5.4251                 1.2582                 2.2932
 Frc consts  --      3.3473                 0.8200                 1.5217
 IR Inten    --   1225.1168                94.6691                 2.8433

                     46                     47                     48
                      A                      A                      A
 Frequencies --   1075.4618              1084.9322              1118.8578
 Red. masses --      1.5543                 3.4763                 2.1562
 Frc consts  --      1.0592                 2.4108                 1.5904
 IR Inten    --     39.9297                74.7180                31.8117

                     49                     50                     51
                      A                      A                      A
 Frequencies --   1136.4899              1161.8910              1168.8902
 Red. masses --      1.5884                 6.5755                 2.2433
 Frc consts  --      1.2087                 5.2301                 1.8059
 IR Inten    --      0.2481               796.8428               287.1169

                     52                     53                     54
                      A                      A                      A
 Frequencies --   1195.0579              1197.4403              1209.9335
 Red. masses --      1.2602                 1.2810                 2.3844
 Frc consts  --      1.0604                 1.0822                 2.0566
 IR Inten    --     21.8386                82.0926               234.4055

                     55                     56                     57
                      A                      A                      A
 Frequencies --   1233.7704              1248.2653              1258.0350
 Red. masses --      1.5962                 1.4206                 2.0461
 Frc consts  --      1.4316                 1.3042                 1.9080
 IR Inten    --     68.3838               629.1620                87.1369

                     58                     59                     60
                      A                      A                      A
 Frequencies --   1293.1589              1322.6419              1357.9255
 Red. masses --      1.7050                 1.5605                 6.9528
 Frc consts  --      1.6798                 1.6084                 7.5538
 IR Inten    --      2.3552               102.1353                65.6950

                     61                     62                     63
                      A                      A                      A
 Frequencies --   1376.8302              1409.5177              1427.3246
 Red. masses --      2.1962                 1.3786                 1.7579
 Frc consts  --      2.4530                 1.6137                 2.1100
 IR Inten    --   1283.6873                29.0577               115.4129

                     64                     65                     66
                      A                      A                      A
 Frequencies --   1460.4833              1470.1518              1479.2343
 Red. masses --      1.4048                 1.3206                 2.1962
 Frc consts  --      1.7654                 1.6817                 2.8313
 IR Inten    --      7.3284                11.4267               535.5599

                     67                     68                     69
                      A                      A                      A
 Frequencies --   1493.8242              1516.8022              1533.0908
 Red. masses --      1.2670                 1.2719                 1.1197
 Frc consts  --      1.6659                 1.7241                 1.5506
 IR Inten    --    100.4129                28.1258               242.1711

                     70                     71                     72
                      A                      A                      A
 Frequencies --   1536.7346              1542.9168              1545.1965
 Red. masses --      1.1364                 1.1346                 1.0915
 Frc consts  --      1.5812                 1.5913                 1.5355
 IR Inten    --    303.4965                 6.6149                 4.3913

                     73                     74                     75
                      A                      A                      A
 Frequencies --   1551.9321              1555.6729              1561.5685
 Red. masses --      1.0531                 1.0637                 1.1230
 Frc consts  --      1.4944                 1.5167                 1.6134
 IR Inten    --     11.0310                12.4786                73.4500

                     76                     77                     78
                      A                      A                      A
 Frequencies --   1562.8225              1565.8251              1582.1325
 Red. masses --      1.5498                 1.0730                 1.0596
 Frc consts  --      2.2302                 1.5500                 1.5627
 IR Inten    --    520.2496                19.3196                23.9350

                     79                     80                     81
                      A                      A                      A
 Frequencies --   1590.5370              1598.8018              1629.5845
 Red. masses --      1.0814                 3.3156                 8.9087
 Frc consts  --      1.6119                 4.9935                13.9385
 IR Inten    --     25.8509              1049.1299                49.2445

                     82                     83                     84
                      A                      A                      A
 Frequencies --   1680.0228              1818.5665              3043.5986
 Red. masses --      8.4103                 7.2073                 1.0798
 Frc consts  --     13.9860                14.0437                 5.8936
 IR Inten    --    857.5362                71.2840             49562.8897

                     85                     86                     87
                      A                      A                      A
 Frequencies --   3068.4231              3069.2260              3074.4561
 Red. masses --      1.0376                 1.0391                 1.0369
 Frc consts  --      5.7557                 5.7674                 5.7746
 IR Inten    --    106.3257               558.1776               265.0892

                     88                     89                     90
                      A                      A                      A
 Frequencies --   3075.5654              3096.5438              3133.0981
 Red. masses --      1.0395                 1.0609                 1.1018
 Frc consts  --      5.7932                 5.9934                 6.3721
 IR Inten    --    153.1670               375.9423               974.3221

                     91                     92                     93
                      A                      A                      A
 Frequencies --   3134.8230              3141.0834              3152.7053
 Red. masses --      1.1034                 1.1012                 1.1090
 Frc consts  --      6.3889                 6.4014                 6.4947
 IR Inten    --   3342.3324              2665.1642             13447.0365

                     94                     95                     96
                      A                      A                      A
 Frequencies --   3163.0018              3168.7126              3185.3033
 Red. masses --      1.0968                 1.0990                 1.1006
 Frc consts  --      6.4649                 6.5015                 6.5794
 IR Inten    --     55.7755                22.5046                61.3744

                     97                     98                     99
                      A                      A                      A
 Frequencies --   3194.2548              3202.9575              3206.0405
 Red. masses --      1.0941                 1.1028                 1.1024
 Frc consts  --      6.5773                 6.6660                 6.6764
 IR Inten    --   5485.3436              1998.4899               374.4720

                    100                    101                    102
                      A                      A                      A
 Frequencies --   3215.5861              3218.2484              4474.4265
 Red. masses --      1.0968                 1.1066                 3.6336
 Frc consts  --      6.6819                 6.7526                42.8604
 IR Inten    --    103.1569                27.6444           6753739.2273

 - Thermochemistry -
 -------------------
 Temperature   298.150 Kelvin.  Pressure   1.00000 Atm.
 Atom     1 has atomic number  6 and mass  12.00000

 Molecular mass:   250.12051 amu.
 Principal axes and moments of inertia in atomic units:
                           1         2         3
     Eigenvalues --  2838.420216986.230918665.87071
           X            0.95484   0.27619   0.10955
           Y           -0.27347   0.96107  -0.03938
           Z           -0.11617   0.00764   0.99320
 This molecule is an asymmetric top.
 Rotational symmetry number  1.
 Warning -- assumption of classical behavior for rotation
           may cause significant error
 Rotational temperatures (Kelvin)      0.03051     0.01240     0.00999
 Rotational constants (GHZ):           0.63583     0.25833     0.20826
 Zero-point vibrational energy     808068.2 (Joules/Mol)
                                  193.13294 (Kcal/Mol)
 Warning -- explicit consideration of  31 degrees of freedom as
           vibrations may cause significant error
 Vibrational temperatures:     44.14    56.48    93.04   118.98   122.67
          (Kelvin)            131.98   147.11   185.89   210.94   231.20
                              238.41   242.45   270.41   296.31   347.17
                              364.11   369.74   415.05   480.57   484.37
                              513.83   533.80   561.42   579.76   596.78
                              623.19   655.89   703.43   738.35   772.60
                              806.19   908.87   933.55  1010.39  1042.80
                             1158.96  1198.56  1263.21  1327.39  1376.48
                             1430.64  1435.72  1472.35  1513.25  1526.90
                             1547.35  1560.98  1609.79  1635.16  1671.70
                             1681.77  1719.42  1722.85  1740.82  1775.12
                             1795.98  1810.03  1860.57  1902.99  1953.75
                             1980.95  2027.98  2053.60  2101.31  2115.22
                             2128.29  2149.28  2182.34  2205.78  2211.02
                             2219.91  2223.19  2232.88  2238.27  2246.75
                             2248.55  2252.87  2276.34  2288.43  2300.32
                             2344.61  2417.18  2616.51  4379.06  4414.78
                             4415.93  4423.46  4425.05  4455.24  4507.83
                             4510.31  4519.32  4536.04  4550.85  4559.07
                             4582.94  4595.82  4608.34  4612.78  4626.51
                             4630.34  6437.70

 Zero-point correction=                           0.307777 (Hartree/Particle)
 Thermal correction to Energy=                    0.327420
 Thermal correction to Enthalpy=                  0.328364
 Thermal correction to Gibbs Free Energy=         0.258753
 Sum of electronic and zero-point Energies=           -842.240431
 Sum of electronic and thermal Energies=              -842.220788
 Sum of electronic and thermal Enthalpies=            -842.219844
 Sum of electronic and thermal Free Energies=         -842.289454

                     E (Thermal)             CV                S
                      KCal/Mol        Cal/Mol-Kelvin    Cal/Mol-Kelvin
 Total                  205.459             70.692            146.508
 Electronic               0.000              0.000              1.377
 Translational            0.889              2.981             42.451
 Rotational               0.889              2.981             33.507
 Vibrational            203.681             64.730             69.173
 Vibration     1          0.594              1.984              5.785
 Vibration     2          0.594              1.981              5.296
 Vibration     3          0.597              1.971              4.309
 Vibration     4          0.600              1.961              3.826
 Vibration     5          0.601              1.959              3.766
 Vibration     6          0.602              1.955              3.623
 Vibration     7          0.604              1.947              3.411
 Vibration     8          0.612              1.924              2.958
 Vibration     9          0.617              1.906              2.716
 Vibration    10          0.622              1.891              2.542
 Vibration    11          0.624              1.885              2.484
 Vibration    12          0.625              1.881              2.452
 Vibration    13          0.633              1.856              2.248
 Vibration    14          0.640              1.831              2.079
 Vibration    15          0.658              1.777              1.793
 Vibration    16          0.664              1.758              1.709
 Vibration    17          0.667              1.751              1.682
 Vibration    18          0.685              1.695              1.483
 Vibration    19          0.716              1.608              1.241
 Vibration    20          0.717              1.602              1.228
 Vibration    21          0.732              1.561              1.135
 Vibration    22          0.743              1.532              1.076
 Vibration    23          0.758              1.491              0.999
 Vibration    24          0.768              1.464              0.952
 Vibration    25          0.778              1.438              0.910
 Vibration    26          0.794              1.398              0.848
 Vibration    27          0.814              1.348              0.778
 Vibration    28          0.845              1.275              0.686
 Vibration    29          0.868              1.221              0.626
 Vibration    30          0.892              1.168              0.572
 Vibration    31          0.916              1.117              0.523

 Optimization completed.
    -- Stationary point found.
 Normal termination of Gaussian 16 at Fri Nov 19 12:54:16 2021.
