 Gaussian 16, Revision C.01,
 Gaussian 16:  ES64L-G16RevC.01  3-Jul-2019

 ----------------------------------------------------------------------
 # MP2/6-31G* Geom=(AllCheck,ModRedundant) Freq NoSymm IOp(7/33=1) SCF=
 Tight Guess=Read
 ----------------------------------------------------------------------

 Structure from the checkpoint file:  "Q1H-opt2try1_opt-3.try2.chk"
 --------------------------------------------------
 <qmtool> simtype="Geometry optimization" </qmtool>
 --------------------------------------------------
 Charge = -1 Multiplicity = 2

                          Input orientation:
 ---------------------------------------------------------------------
 Center     Atomic      Atomic             Coordinates (Angstroms)
 Number     Number       Type             X           Y           Z
 ---------------------------------------------------------------------
      1          6           0        0.244322   -1.518459    0.646791
      2          6           0       -0.269766   -2.896039    0.971498
      3          6           0        1.625127   -1.462860    0.184109
      4          8           0        2.355180   -2.499596    0.068777
      5          6           0        2.132698   -0.132890   -0.124782
      6          8           0        3.457356    0.021471   -0.495288
      7          6           0        1.353267    0.997034   -0.021647
      8          8           0        1.865758    2.224858   -0.403476
      9          6           0       -0.011306    0.941717    0.476234
     10          8           0       -0.692702    2.000306    0.637068
     11          6           0       -0.536384   -0.385910    0.778625
     12          6           0       -1.974766   -0.428528    1.238904
     13          1           0       -1.000780   -3.249001    0.233708
     14          1           0        0.582673   -3.578338    0.959914
     15          1           0       -0.753728   -2.932510    1.955152
     16          6           0        3.762483   -0.659307   -1.716192
     17          1           0        3.543456   -1.723376   -1.620284
     18          1           0        3.195280   -0.220740   -2.548313
     19          1           0        4.830359   -0.499481   -1.888933
     20          6           0        2.162462    3.044469    0.726554
     21          1           0        2.926241    2.569055    1.355061
     22          1           0        2.556877    3.982969    0.327917
     23          1           0        1.259274    3.240119    1.310675
     24          1           0       -2.089213   -1.173290    2.037735
     25          1           0       -2.220419    0.549771    1.658994
     26          6           0       -2.908522   -0.780525    0.110714
     27          1           0       -2.890917   -1.828669   -0.194779
     28          6           0       -3.843833    1.527825   -0.289907
     29          6           0       -3.727053    0.050714   -0.563414
     30          1           0       -4.744175    1.752797    0.298656
     31          1           0       -2.961228    1.912277    0.224742
     32          6           0       -4.610280   -0.471867   -1.666265
     33          1           0       -4.496219   -1.552787   -1.793936
     34          1           0       -5.667922   -0.260615   -1.458270
     35          1           0       -4.373641    0.013044   -2.621926
     36          1           0       -3.940643    2.073159   -1.236455
 ---------------------------------------------------------------------

 SCF Done:  E(UHF) =  -840.032405754     A.U. after    1 cycles
 E2 =    -0.2515858882D+01 EUMP2 =    -0.84254826463510D+03
 E2 =    -0.2515858882D+01 EUMP2 =    -0.84254826463510D+03

 Alpha  occ. eigenvalues --  -20.43581 -20.43406 -20.37623 -20.37139 -11.14456
 Alpha  occ. eigenvalues --  -11.14216 -11.14105 -11.14100 -11.13851 -11.13363
 Alpha  occ. eigenvalues --  -11.12316 -11.12044 -11.10684 -11.09980 -11.09824
 Alpha  occ. eigenvalues --  -11.09283 -11.08983 -11.08874  -1.25912  -1.23697
 Alpha  occ. eigenvalues --   -1.19136  -1.18784  -0.99267  -0.97083  -0.90672
 Alpha  occ. eigenvalues --   -0.87623  -0.82990  -0.82128  -0.81197  -0.78537
 Alpha  occ. eigenvalues --   -0.75468  -0.73621  -0.63978  -0.63228  -0.59154
 Alpha  occ. eigenvalues --   -0.56977  -0.53435  -0.52385  -0.51370  -0.50497
 Alpha  occ. eigenvalues --   -0.49209  -0.48549  -0.48178  -0.47910  -0.47394
 Alpha  occ. eigenvalues --   -0.45341  -0.44656  -0.44322  -0.43135  -0.42574
 Alpha  occ. eigenvalues --   -0.41566  -0.40697  -0.40656  -0.40007  -0.38957
 Alpha  occ. eigenvalues --   -0.38889  -0.37700  -0.36783  -0.36595  -0.35037
 Alpha  occ. eigenvalues --   -0.32329  -0.31243  -0.26913  -0.25660  -0.25397
 Alpha  occ. eigenvalues --   -0.21530  -0.17778  -0.09774
 Alpha virt. eigenvalues --    0.27620   0.30508   0.32919   0.33739   0.35862
 Alpha virt. eigenvalues --    0.38205   0.39026   0.39597   0.40219   0.41257
 Alpha virt. eigenvalues --    0.41986   0.42447   0.43402   0.43501   0.44369

  Beta  occ. eigenvalues --  -20.43574 -20.43404 -20.35868 -20.35539 -11.14458
  Beta  occ. eigenvalues --  -11.14219 -11.14074 -11.14037 -11.13743 -11.13308
  Beta  occ. eigenvalues --  -11.12342 -11.11836 -11.10873 -11.10008 -11.09826
  Beta  occ. eigenvalues --  -11.09148 -11.08908 -11.08872  -1.25773  -1.23486
  Beta  occ. eigenvalues --   -1.15578  -1.15203  -0.98881  -0.96200  -0.90411
  Beta  occ. eigenvalues --   -0.87283  -0.82919  -0.81612  -0.81028  -0.78229
  Beta  occ. eigenvalues --   -0.74150  -0.73129  -0.63404  -0.62562  -0.59062
  Beta  occ. eigenvalues --   -0.56823  -0.53144  -0.52135  -0.51168  -0.50051
  Beta  occ. eigenvalues --   -0.49046  -0.48324  -0.48024  -0.47712  -0.46868
  Beta  occ. eigenvalues --   -0.44841  -0.43874  -0.43342  -0.42727  -0.42029
  Beta  occ. eigenvalues --   -0.41144  -0.40409  -0.39375  -0.38757  -0.37731
  Beta  occ. eigenvalues --   -0.37325  -0.36336  -0.35364  -0.34191  -0.32186
  Beta  occ. eigenvalues --   -0.30532  -0.29040  -0.24350  -0.24158  -0.21531
  Beta  occ. eigenvalues --   -0.17378  -0.16230
  Beta virt. eigenvalues --    0.21343   0.29442   0.32491   0.33998   0.35800
  Beta virt. eigenvalues --    0.38175   0.38270   0.39138   0.40264   0.40829
  Beta virt. eigenvalues --    0.41528   0.42255   0.42649   0.43529   0.43691

 Mulliken charges and spin densities:
               1          2
     1  C   -0.062807   0.077530
     2  C   -0.519638  -0.016765
     3  C    0.421716   0.032612
     4  O   -0.703559   0.373266
     5  C    0.259934   0.059556
     6  O   -0.664375  -0.001463
     7  C    0.246210   0.028317
     8  O   -0.659974  -0.001564
     9  C    0.442552   0.050601
    10  O   -0.714017   0.336542
    11  C   -0.067380   0.062289
    12  C   -0.387759  -0.000003
    13  H    0.141252   0.004668
    14  H    0.211747  -0.000267
    15  H    0.136139   0.003685
    16  C   -0.166131  -0.000839
    17  H    0.205461  -0.000459
    18  H    0.129363  -0.000416
    19  H    0.130206   0.000280
    20  C   -0.154550  -0.000393
    21  H    0.135861  -0.000448
    22  H    0.131740   0.000416
    23  H    0.184724  -0.000636
    24  H    0.149364  -0.000327
    25  H    0.207398  -0.000290
    26  C   -0.188196  -0.110943
    27  H    0.154005   0.008236
    28  C   -0.543502  -0.013851
    29  C    0.071383   0.110213
    30  H    0.128455   0.004553
    31  H    0.263894  -0.000848
    32  C   -0.498642  -0.014086
    33  H    0.153545   0.000618
    34  H    0.136839   0.003757
    35  H    0.150430   0.003954
    36  H    0.138313   0.002504
 Sum of Mulliken charges =  -1.00000   1.00000

 Dipole moment (field-independent basis, Debye):
    X=             -3.6974    Y=              0.0698    Z=             -0.5412  Tot=              3.7375
 Quadrupole moment (field-independent basis, Debye-Ang):
   XX=           -139.4008   YY=           -133.5168   ZZ=           -110.7023
   XY=             11.1380   XZ=             -0.1480   YZ=              3.1576

  Exact polarizability:   -2913.008    4066.180   -5168.933     511.983    -675.816      34.591
 Approx polarizability:     151.016     -24.652     166.191      -4.901      -3.097     109.635

 ******    1 imaginary frequencies (negative Signs) ******

                      1                      2                      3
                      A                      A                      A
 Frequencies --    -52.7790                44.6092                52.3413
 Red. masses --      3.4996                 4.4808                 4.3470
 Frc consts  --      0.0057                 0.0053                 0.0070
 IR Inten    --      1.4933                 2.9621                 1.8095

                      4                      5                      6
                      A                      A                      A
 Frequencies --     76.4455                78.4588                97.9476
 Red. masses --      1.4739                 3.8472                 2.0985
 Frc consts  --      0.0051                 0.0140                 0.0119
 IR Inten    --      3.0750                 8.5775                45.6901

                      7                      8                      9
                      A                      A                      A
 Frequencies --    103.5485               112.9555               134.0563
 Red. masses --      3.7088                 2.7771                 3.3726
 Frc consts  --      0.0234                 0.0209                 0.0357
 IR Inten    --     45.8399                 2.2070                 4.6944

                     10                     11                     12
                      A                      A                      A
 Frequencies --    164.6805               171.9384               177.0112
 Red. masses --      1.1632                 1.1943                 1.6085
 Frc consts  --      0.0186                 0.0208                 0.0297
 IR Inten    --      0.7432                 4.1011                15.1300

                     13                     14                     15
                      A                      A                      A
 Frequencies --    199.0040               228.0163               235.0054
 Red. masses --      2.8768                 1.8933                 3.0758
 Frc consts  --      0.0671                 0.0580                 0.1001
 IR Inten    --     42.8356                57.4363               127.6170

                     16                     17                     18
                      A                      A                      A
 Frequencies --    251.5985               272.3755               322.8155
 Red. masses --      1.6246                 2.7001                 2.2572
 Frc consts  --      0.0606                 0.1180                 0.1386
 IR Inten    --     30.8313                 6.5027                 0.8164

                     19                     20                     21
                      A                      A                      A
 Frequencies --    331.2619               335.4370               361.3292
 Red. masses --      4.0958                 4.9893                 4.8043
 Frc consts  --      0.2648                 0.3308                 0.3696
 IR Inten    --     45.4943                18.5084               156.0807

                     22                     23                     24
                      A                      A                      A
 Frequencies --    379.0972               391.9449               403.9461
 Red. masses --      2.9722                 2.9408                 4.5269
 Frc consts  --      0.2517                 0.2662                 0.4352
 IR Inten    --     25.4078                54.1333                15.9778

                     25                     26                     27
                      A                      A                      A
 Frequencies --    422.3993               452.5026               471.4266
 Red. masses --      3.7744                 5.3970                 5.9641
 Frc consts  --      0.3968                 0.6511                 0.7810
 IR Inten    --    147.3362                56.4150                40.6416

                     28                     29                     30
                      A                      A                      A
 Frequencies --    501.4325               515.0721               547.4958
 Red. masses --      4.8801                10.7194                 6.7743
 Frc consts  --      0.7229                 1.6755                 1.1964
 IR Inten    --    173.1571                 1.2561                 5.3141

                     31                     32                     33
                      A                      A                      A
 Frequencies --    569.7649               609.7807               631.6578
 Red. masses --      3.2259                 5.3823                 2.1919
 Frc consts  --      0.6170                 1.1791                 0.5153
 IR Inten    --     30.7622                60.5435                25.9209

                     34                     35                     36
                      A                      A                      A
 Frequencies --    689.0233               712.8544               827.2492
 Red. masses --      4.1472                 3.7611                 4.3739
 Frc consts  --      1.1600                 1.1261                 1.7636
 IR Inten    --    215.8145               166.8647              5785.6004

                     37                     38                     39
                      A                      A                      A
 Frequencies --    849.9461               912.1176               937.7257
 Red. masses --      3.3168                 3.5953                 2.7377
 Frc consts  --      1.4117                 1.7623                 1.4183
 IR Inten    --   1306.1880                42.1082               620.0260

                     40                     41                     42
                      A                      A                      A
 Frequencies --    989.4960              1005.8975              1010.7616
 Red. masses --      2.1274                 1.8488                 1.6444
 Frc consts  --      1.2272                 1.1021                 0.9898
 IR Inten    --    744.9508                12.3664                37.6932

                     43                     44                     45
                      A                      A                      A
 Frequencies --   1039.3168              1064.9162              1072.5292
 Red. masses --      2.6344                 2.2004                 1.7771
 Frc consts  --      1.6766                 1.4702                 1.2044
 IR Inten    --   1391.4006                13.1014                 9.0877

                     46                     47                     48
                      A                      A                      A
 Frequencies --   1101.5120              1117.7510              1157.1133
 Red. masses --      2.8283                 2.4468                 4.8890
 Frc consts  --      2.0219                 1.8011                 3.8568
 IR Inten    --    204.1973                34.1424               836.3501

                     49                     50                     51
                      A                      A                      A
 Frequencies --   1169.6643              1191.1377              1192.6790
 Red. masses --      1.5768                 1.3916                 1.3574
 Frc consts  --      1.2710                 1.1633                 1.1376
 IR Inten    --     43.2932                 2.7714               104.4459

                     52                     53                     54
                      A                      A                      A
 Frequencies --   1197.7723              1205.7941              1230.9374
 Red. masses --      1.2869                 2.4446                 1.5052
 Frc consts  --      1.0878                 2.0941                 1.3437
 IR Inten    --    128.3574               112.6303                27.7227

                     55                     56                     57
                      A                      A                      A
 Frequencies --   1245.8035              1251.2220              1255.8666
 Red. masses --      1.4380                 1.9314                 1.9607
 Frc consts  --      1.3149                 1.7815                 1.8220
 IR Inten    --    448.8653                11.6423               111.6258

                     58                     59                     60
                      A                      A                      A
 Frequencies --   1318.8914              1327.9769              1351.0983
 Red. masses --      1.9811                 1.4909                 6.8178
 Frc consts  --      2.0303                 1.5491                 7.3328
 IR Inten    --    112.2433                69.4076               146.8554

                     61                     62                     63
                      A                      A                      A
 Frequencies --   1381.1602              1425.9464              1429.5620
 Red. masses --      2.3419                 1.6474                 1.3817
 Frc consts  --      2.6322                 1.9736                 1.6636
 IR Inten    --   1332.7792                 3.2913                 1.5801

                     64                     65                     66
                      A                      A                      A
 Frequencies --   1469.6116              1479.0767              1488.0615
 Red. masses --      1.3410                 2.3178                 1.5314
 Frc consts  --      1.7065                 2.9875                 1.9979
 IR Inten    --      5.1583               724.9849               133.5759

                     67                     68                     69
                      A                      A                      A
 Frequencies --   1495.5747              1521.3315              1536.2441
 Red. masses --      1.2450                 1.2757                 1.1266
 Frc consts  --      1.6408                 1.7396                 1.5666
 IR Inten    --     94.8296               357.3417               159.1196

                     70                     71                     72
                      A                      A                      A
 Frequencies --   1538.7472              1543.2215              1543.8423
 Red. masses --      1.0723                 1.1645                 1.0791
 Frc consts  --      1.4959                 1.6340                 1.5153
 IR Inten    --     28.0740                27.5623                 8.3206

                     73                     74                     75
                      A                      A                      A
 Frequencies --   1550.2882              1565.9416              1566.6065
 Red. masses --      1.0733                 1.0606                 1.1351
 Frc consts  --      1.5199                 1.5323                 1.6414
 IR Inten    --     45.1428                33.9089                34.7011

                     76                     77                     78
                      A                      A                      A
 Frequencies --   1574.8105              1580.7771              1585.9004
 Red. masses --      1.5833                 1.0849                 2.5274
 Frc consts  --      2.3136                 1.5972                 3.7452
 IR Inten    --   1020.4037               170.3465               392.5986

                     79                     80                     81
                      A                      A                      A
 Frequencies --   1587.4076              1588.6472              1616.0878
 Red. masses --      1.0987                 1.0941                 7.3057
 Frc consts  --      1.6312                 1.6268                11.2420
 IR Inten    --     12.8883                23.2962                56.4342

                     82                     83                     84
                      A                      A                      A
 Frequencies --   1677.1078              3013.8333              3071.5497
 Red. masses --      9.0322                 1.1669                 1.0379
 Frc consts  --     14.9680                 6.2450                 5.7695
 IR Inten    --     11.3839            138347.4347               232.0048

                     85                     86                     87
                      A                      A                      A
 Frequencies --   3072.4611              3074.7660              3077.1496
 Red. masses --      1.0374                 1.0356                 1.0382
 Frc consts  --      5.7701                 5.7688                 5.7922
 IR Inten    --    347.7530               216.9564                60.5475

                     88                     89                     90
                      A                      A                      A
 Frequencies --   3084.5007              3140.9292              3141.7468
 Red. masses --      1.0606                 1.1010                 1.1024
 Frc consts  --      5.9454                 6.3995                 6.4108
 IR Inten    --    722.8635               247.0268              3441.0702

                     91                     92                     93
                      A                      A                      A
 Frequencies --   3145.2518              3160.0973              3166.6580
 Red. masses --      1.0995                 1.1055                 1.0971
 Frc consts  --      6.4087                 6.5042                 6.4820
 IR Inten    --     42.1662             21802.3041                31.1344

                     94                     95                     96
                      A                      A                      A
 Frequencies --   3170.5331              3174.5281              3179.7146
 Red. masses --      1.1004                 1.0886                 1.0996
 Frc consts  --      6.5174                 6.4638                 6.5504
 IR Inten    --   4495.7664              3464.5489              2689.1820

                     97                     98                     99
                      A                      A                      A
 Frequencies --   3196.7500              3202.0106              3206.7440
 Red. masses --      1.1016                 1.1015                 1.1016
 Frc consts  --      6.6330                 6.6541                 6.6745
 IR Inten    --   2062.3672              1272.8121               930.3035

                    100                    101                    102
                      A                      A                      A
 Frequencies --   3219.7704              4049.3710              6445.7574
 Red. masses --      1.1061                 2.9579                11.5376
 Frc consts  --      6.7561                28.5767               282.4320
 IR Inten    --      6.6913           4063582.1490             64017.9618

 - Thermochemistry -
 -------------------
 Temperature   298.150 Kelvin.  Pressure   1.00000 Atm.
 Atom     1 has atomic number  6 and mass  12.00000

 Molecular mass:   250.12051 amu.
 Principal axes and moments of inertia in atomic units:
                           1         2         3
     Eigenvalues --  3022.315556470.030758202.21885
           X            0.99995   0.00875   0.00412
           Y           -0.00878   0.99993   0.00759
           Z           -0.00405  -0.00762   0.99996
 This molecule is an asymmetric top.
 Rotational symmetry number  1.
 Warning -- assumption of classical behavior for rotation
           may cause significant error
 Rotational temperatures (Kelvin)      0.02866     0.01339     0.01056
 Rotational constants (GHZ):           0.59714     0.27894     0.22003
    1 imaginary frequencies ignored.
 Zero-point vibrational energy     836276.3 (Joules/Mol)
                                  199.87484 (Kcal/Mol)
 Warning -- explicit consideration of  31 degrees of freedom as
           vibrations may cause significant error
 Vibrational temperatures:     64.18    75.31   109.99   112.88   140.92
          (Kelvin)            148.98   162.52   192.88   236.94   247.38
                              254.68   286.32   328.06   338.12   361.99
                              391.89   464.46   476.61   482.62   519.87
                              545.44   563.92   581.19   607.74   651.05
                              678.28   721.45   741.07   787.72   819.76
                              877.34   908.81   991.35  1025.64  1190.23
                             1222.88  1312.33  1349.18  1423.66  1447.26
                             1454.26  1495.35  1532.18  1543.13  1584.83
                             1608.19  1664.83  1682.89  1713.78  1716.00
                             1723.33  1734.87  1771.04  1792.43  1800.23
                             1806.91  1897.59  1910.66  1943.93  1987.18
                             2051.62  2056.82  2114.44  2128.06  2140.99
                             2151.80  2188.86  2210.31  2213.91  2220.35
                             2221.24  2230.52  2253.04  2254.00  2265.80
                             2274.39  2281.76  2283.93  2285.71  2325.19
                             2412.98  4336.23  4419.27  4420.59  4423.90
                             4427.33  4437.91  4519.10  4520.27  4525.32
                             4546.68  4556.11  4561.69  4567.44  4574.90
                             4599.41  4606.98  4613.79  4632.53  5826.14
                             9274.01

 Zero-point correction=                           0.318521 (Hartree/Particle)
 Thermal correction to Energy=                    0.337133
 Thermal correction to Enthalpy=                  0.338077
 Thermal correction to Gibbs Free Energy=         0.271380
 Sum of electronic and zero-point Energies=           -842.229744
 Sum of electronic and thermal Energies=              -842.211131
 Sum of electronic and thermal Enthalpies=            -842.210187
 Sum of electronic and thermal Free Energies=         -842.276884

                     E (Thermal)             CV                S
                      KCal/Mol        Cal/Mol-Kelvin    Cal/Mol-Kelvin
 Total                  211.554             68.069            140.376
 Electronic               0.000              0.000              1.377
 Translational            0.889              2.981             42.451
 Rotational               0.889              2.981             33.439
 Vibrational            209.777             62.107             63.109
 Vibration     1          0.595              1.980              5.043
 Vibration     2          0.596              1.977              4.727
 Vibration     3          0.599              1.965              3.980
 Vibration     4          0.600              1.964              3.929
 Vibration     5          0.603              1.951              3.495
 Vibration     6          0.605              1.946              3.386
 Vibration     7          0.607              1.939              3.217
 Vibration     8          0.613              1.919              2.887
 Vibration     9          0.623              1.886              2.495
 Vibration    10          0.626              1.877              2.414
 Vibration    11          0.628              1.871              2.360
 Vibration    12          0.637              1.841              2.142
 Vibration    13          0.651              1.798              1.895
 Vibration    14          0.655              1.787              1.840
 Vibration    15          0.664              1.760              1.719
 Vibration    16          0.675              1.724              1.581
 Vibration    17          0.708              1.630              1.296
 Vibration    18          0.714              1.613              1.254
 Vibration    19          0.717              1.605              1.234
 Vibration    20          0.736              1.552              1.116
 Vibration    21          0.749              1.515              1.043
 Vibration    22          0.759              1.487              0.993
 Vibration    23          0.769              1.462              0.948
 Vibration    24          0.785              1.422              0.884
 Vibration    25          0.811              1.355              0.788
 Vibration    26          0.828              1.313              0.734
 Vibration    27          0.857              1.247              0.655
 Vibration    28          0.870              1.217              0.621
 Vibration    29          0.903              1.145              0.549
 Vibration    30          0.926              1.097              0.505
 Vibration    31          0.969              1.011              0.433

                           ! Non-Optimized Parameters !
 Normal termination of Gaussian 16 at Sat Nov 13 02:58:20 2021.
