 Gaussian 16, Revision C.01,
 Gaussian 16:  ES64L-G16RevC.01  3-Jul-2019

 --------------------------------------------------------------
 # HF/6-31G* Opt=(Z-matrix,MaxCycles=100) Geom=PrintInputOrient
 --------------------------------------------------------------

 -------------------------------------------------------------
 <qmtool> simtype="Geometry optimization" </qmtool> Q1H-ACC-O4
 -------------------------------------------------------------
 Symbolic Z-matrix:
 Charge = -1 Multiplicity = 2

 SCF Done:  E(UHF) =  -916.057259770     A.U. after   44 cycles
 SCF Done:  E(UHF) =  -916.057568432     A.U. after   34 cycles
 SCF Done:  E(UHF) =  -916.057964905     A.U. after   34 cycles
 SCF Done:  E(UHF) =  -916.058026184     A.U. after   33 cycles
 SCF Done:  E(UHF) =  -916.058038007     A.U. after   19 cycles
 SCF Done:  E(UHF) =  -916.058044594     A.U. after   18 cycles
 SCF Done:  E(UHF) =  -916.058046370     A.U. after   17 cycles
 Optimization completed.
    -- Stationary point found.

                         Standard orientation:
 ---------------------------------------------------------------------
 Center     Atomic      Atomic             Coordinates (Angstroms)
 Number     Number       Type             X           Y           Z
 ---------------------------------------------------------------------
      1          6           0       -0.242710    1.901614   -0.346583
      2          6           0       -0.966399    3.220610   -0.241318
      3          6           0        1.175507    1.926815    0.010232
      4          8           0        1.762338    2.978528    0.373213
      5          6           0        1.888299    0.657396   -0.093489
      6          8           0        3.251315    0.616955    0.156321
      7          6           0        1.250625   -0.496687   -0.480336
      8          8           0        1.951165   -1.689823   -0.492341
      9          6           0       -0.145102   -0.523808   -0.876489
     10          8           0       -0.696804   -1.602322   -1.305905
     11          6           0       -0.855854    0.738156   -0.757332
     12          6           0       -2.317904    0.671017   -1.111180
     13          1           0       -1.675801    3.237609    0.594630
     14          1           0       -0.223155    4.002343   -0.070611
     15          1           0       -1.530504    3.448139   -1.151976
     16          6           0        3.584199    0.957681    1.505647
     17          1           0        3.221675    1.956470    1.750383
     18          1           0        3.164905    0.216221    2.199245
     19          1           0        4.675158    0.922036    1.561681
     20          6           0        2.249531   -2.097243   -1.825627
     21          1           0        2.887412   -1.354681   -2.321557
     22          1           0        2.792947   -3.042517   -1.741334
     23          1           0        1.326620   -2.247063   -2.391555
     24          1           0       -2.624472    1.574406   -1.659112
     25          1           0       -2.460823   -0.184181   -1.775210
     26          6           0       -3.160964    0.552823    0.129021
     27          1           0       -3.267398    1.472568    0.706826
     28          6           0       -3.663774   -1.905995   -0.054718
     29          6           0       -3.750966   -0.553320    0.602914
     30          1           0       -4.583698   -2.134840   -0.611979
     31          1           0       -2.798934   -1.973079   -0.717857
     32          6           0       -4.573850   -0.505298    1.864101
     33          1           0       -4.619182    0.508223    2.276471
     34          1           0       -5.600523   -0.846661    1.676182
     35          1           0       -4.155500   -1.170256    2.631160
     36          1           0       -3.556141   -2.682876    0.711804
     37          1           0        2.462443   -2.682272    1.102771
     38          8           0        2.713804   -3.170193    1.886980
     39          1           0        1.886593   -3.347329    2.334839
 ---------------------------------------------------------------------

 The electronic state is 2-A.
 Alpha  occ. eigenvalues --  -20.45223 -20.44568 -20.42401 -20.40768 -20.35695
 Alpha  occ. eigenvalues --  -11.15768 -11.15224 -11.15185 -11.14932 -11.13964
 Alpha  occ. eigenvalues --  -11.13795 -11.12445 -11.11874 -11.10826 -11.10432
 Alpha  occ. eigenvalues --  -11.09905 -11.09840 -11.09749 -11.09158  -1.27308
 Alpha  occ. eigenvalues --   -1.25192  -1.22401  -1.20838  -1.17085  -0.99797
 Alpha  occ. eigenvalues --   -0.97584  -0.91494  -0.88383  -0.83206  -0.82581
 Alpha  occ. eigenvalues --   -0.82052  -0.79150  -0.76331  -0.74297  -0.64944
 Alpha  occ. eigenvalues --   -0.64203  -0.59434  -0.58486  -0.57233  -0.54397
 Alpha  occ. eigenvalues --   -0.53347  -0.51756  -0.51557  -0.49615  -0.49213
 Alpha  occ. eigenvalues --   -0.49050  -0.48535  -0.48066  -0.46751  -0.45556
 Alpha  occ. eigenvalues --   -0.44947  -0.44172  -0.43406  -0.42887  -0.42593
 Alpha  occ. eigenvalues --   -0.41346  -0.40717  -0.40359  -0.39710  -0.39247
 Alpha  occ. eigenvalues --   -0.38576  -0.37762  -0.36781  -0.36618  -0.35037
 Alpha  occ. eigenvalues --   -0.33599  -0.32298  -0.27993  -0.27497  -0.25073
 Alpha  occ. eigenvalues --   -0.21870  -0.19119  -0.10573
 Alpha virt. eigenvalues --    0.27202   0.30228   0.32374   0.33552   0.34120
 Alpha virt. eigenvalues --    0.35458   0.38086   0.38852   0.39286   0.39995
 Alpha virt. eigenvalues --    0.40945   0.41494   0.42222   0.42681   0.43500

  Beta  occ. eigenvalues --  -20.45218 -20.44546 -20.42401 -20.38803 -20.34291
  Beta  occ. eigenvalues --  -11.16111 -11.15224 -11.14900 -11.14544 -11.14312
  Beta  occ. eigenvalues --  -11.13522 -11.12431 -11.11985 -11.10741 -11.09946
  Beta  occ. eigenvalues --  -11.09883 -11.09800 -11.09736 -11.09536  -1.27213
  Beta  occ. eigenvalues --   -1.24742  -1.20837  -1.18408  -1.14022  -0.99390
  Beta  occ. eigenvalues --   -0.96910  -0.91265  -0.87741  -0.82954  -0.82187
  Beta  occ. eigenvalues --   -0.82019  -0.78837  -0.75211  -0.73620  -0.64359
  Beta  occ. eigenvalues --   -0.63535  -0.59414  -0.58451  -0.57164  -0.54044
  Beta  occ. eigenvalues --   -0.53060  -0.51503  -0.51200  -0.49419  -0.49095
  Beta  occ. eigenvalues --   -0.48846  -0.48201  -0.47820  -0.45825  -0.44594
  Beta  occ. eigenvalues --   -0.44153  -0.43904  -0.43018  -0.42433  -0.41410
  Beta  occ. eigenvalues --   -0.40505  -0.39876  -0.39515  -0.38585  -0.38137
  Beta  occ. eigenvalues --   -0.36828  -0.36626  -0.35824  -0.34985  -0.33046
  Beta  occ. eigenvalues --   -0.31745  -0.29831  -0.26045  -0.23995  -0.21893
  Beta  occ. eigenvalues --   -0.18624  -0.17320
  Beta virt. eigenvalues --    0.20810   0.29399   0.31927   0.33733   0.34189
  Beta virt. eigenvalues --    0.35394   0.37645   0.38163   0.39023   0.40062
  Beta virt. eigenvalues --    0.40446   0.41121   0.41680   0.42242   0.42937

 Mulliken charges and spin densities:
               1          2
     1  C   -0.057931   0.353513
     2  C   -0.518382  -0.049153
     3  C    0.423180  -0.157341
     4  O   -0.648962   0.436549
     5  C    0.273558   0.353549
     6  O   -0.667097  -0.011312
     7  C    0.242204  -0.256727
     8  O   -0.695969   0.010370
     9  C    0.442071   0.234128
    10  O   -0.760376   0.280854
    11  C   -0.064898  -0.220953
    12  C   -0.390992   0.011025
    13  H    0.145885   0.014343
    14  H    0.207087   0.001585
    15  H    0.142833   0.010242
    16  C   -0.169884   0.004431
    17  H    0.194003  -0.001021
    18  H    0.144884   0.000111
    19  H    0.139573   0.000480
    20  C   -0.161942  -0.005786
    21  H    0.141768  -0.000412
    22  H    0.141566  -0.000402
    23  H    0.198266  -0.000093
    24  H    0.145612  -0.001931
    25  H    0.214375  -0.001951
    26  C   -0.193334   0.054886
    27  H    0.151688  -0.003733
    28  C   -0.548018   0.007260
    29  C    0.075854  -0.059431
    30  H    0.126499  -0.002311
    31  H    0.274961  -0.002309
    32  C   -0.498414   0.007234
    33  H    0.151783  -0.000316
    34  H    0.137985  -0.001897
    35  H    0.149355  -0.002121
    36  H    0.135257  -0.001356
    37  H    0.504010  -0.000023
    38  O   -0.942374   0.000020
    39  H    0.414319   0.000005
 Sum of Mulliken charges =  -1.00000   1.00000

 Dipole moment (field-independent basis, Debye):
    X=             -4.0447    Y=              0.5122    Z=              0.6309  Tot=              4.1255
 Quadrupole moment (field-independent basis, Debye-Ang):
   XX=           -150.1609   YY=           -147.4596   ZZ=           -119.1265
   XY=             -1.2739   XZ=             -7.8181   YZ=              0.7323

 Normal termination of Gaussian 16 at Tue Oct 26 23:14:07 2021.
