 Gaussian 16, Revision C.01,
 Gaussian 16:  ES64L-G16RevC.01  3-Jul-2019

 --------------------------------------------------------------
 # HF/6-31G* Opt=(Z-matrix,MaxCycles=100) Geom=PrintInputOrient
 --------------------------------------------------------------

 -------------------------------------------------------------
 <qmtool> simtype="Geometry optimization" </qmtool> Q1H-ACC-O5
 -------------------------------------------------------------
 Symbolic Z-matrix:
 Charge = -1 Multiplicity = 2

 SCF Done:  E(UHF) =  -916.059134929     A.U. after   43 cycles
 SCF Done:  E(UHF) =  -916.059200977     A.U. after   32 cycles
 SCF Done:  E(UHF) =  -916.059305808     A.U. after   17 cycles
 SCF Done:  E(UHF) =  -916.059204482     A.U. after   31 cycles
 SCF Done:  E(UHF) =  -916.059402593     A.U. after   18 cycles
 SCF Done:  E(UHF) =  -916.059386711     A.U. after   31 cycles
 SCF Done:  E(UHF) =  -916.059413309     A.U. after   16 cycles
 Optimization completed.
    -- Stationary point found.

                         Standard orientation:
 ---------------------------------------------------------------------
 Center     Atomic      Atomic             Coordinates (Angstroms)
 Number     Number       Type             X           Y           Z
 ---------------------------------------------------------------------
      1          6           0       -0.743111   -1.638858   -0.764746
      2          6           0       -0.526987   -3.061183   -1.217337
      3          6           0       -2.096589   -1.316157   -0.313912
      4          8           0       -3.027219   -2.162407   -0.309978
      5          6           0       -2.319758    0.059114    0.120925
      6          8           0       -3.593974    0.460032    0.491724
      7          6           0       -1.304939    0.985548    0.127795
      8          8           0       -1.547176    2.256400    0.618438
      9          6           0        0.029894    0.686859   -0.356694
     10          8           0        0.939874    1.593036   -0.409090
     11          6           0        0.253044   -0.687082   -0.774321
     12          6           0        1.661996   -0.989478   -1.211033
     13          1           0        0.094363   -3.628973   -0.514567
     14          1           0       -1.501974   -3.549418   -1.278062
     15          1           0       -0.036567   -3.106036   -2.195477
     16          6           0       -4.084369   -0.228361    1.646373
     17          1           0       -4.101879   -1.304778    1.473402
     18          1           0       -3.465549    0.009925    2.522119
     19          1           0       -5.096675    0.149388    1.811129
     20          6           0       -1.625818    3.209287   -0.439146
     21          1           0       -2.458669    2.969582   -1.112302
     22          1           0       -1.811069    4.177007    0.035352
     23          1           0       -0.683850    3.239751   -0.992547
     24          1           0        1.660608   -1.667093   -2.077729
     25          1           0        2.122066   -0.050121   -1.525149
     26          6           0        2.437343   -1.637400   -0.096648
     27          1           0        2.192384   -2.684226    0.091153
     28          6           0        3.768980    0.384658    0.589200
     29          6           0        3.352351   -1.059392    0.693855
     30          1           0        4.735155    0.481098    0.073084
     31          1           0        3.011621    0.983249    0.079004
     32          6           0        4.050238   -1.851879    1.768543
     33          1           0        3.722930   -2.896947    1.774378
     34          1           0        5.138900   -1.832963    1.625865
     35          1           0        3.854436   -1.424654    2.760866
     36          1           0        3.903119    0.803895    1.593656
     37          1           0        2.278369    2.926029   -0.486135
     38          8           0        2.952855    3.597742   -0.524959
     39          1           0        3.533759    3.312800   -1.224242
 ---------------------------------------------------------------------

 The electronic state is 2-A.
 Alpha  occ. eigenvalues --  -20.44773 -20.43521 -20.41911 -20.41157 -20.35549
 Alpha  occ. eigenvalues --  -11.16269 -11.15483 -11.15235 -11.14305 -11.14236
 Alpha  occ. eigenvalues --  -11.13539 -11.12315 -11.11778 -11.10846 -11.10775
 Alpha  occ. eigenvalues --  -11.10125 -11.10097 -11.09534 -11.09142  -1.26953
 Alpha  occ. eigenvalues --   -1.24505  -1.23117  -1.20042  -1.17060  -0.99933
 Alpha  occ. eigenvalues --   -0.97619  -0.91487  -0.88581  -0.83356  -0.82522
 Alpha  occ. eigenvalues --   -0.81433  -0.79342  -0.76185  -0.74467  -0.64814
 Alpha  occ. eigenvalues --   -0.64451  -0.59460  -0.57611  -0.57079  -0.54357
 Alpha  occ. eigenvalues --   -0.53163  -0.51920  -0.51455  -0.49702  -0.49041
 Alpha  occ. eigenvalues --   -0.48470  -0.48367  -0.47849  -0.46958  -0.46093
 Alpha  occ. eigenvalues --   -0.45625  -0.43890  -0.43057  -0.42711  -0.42675
 Alpha  occ. eigenvalues --   -0.41300  -0.40622  -0.40502  -0.39800  -0.39363
 Alpha  occ. eigenvalues --   -0.38276  -0.37799  -0.36712  -0.35679  -0.34634
 Alpha  occ. eigenvalues --   -0.34028  -0.31231  -0.28345  -0.27994  -0.25115
 Alpha  occ. eigenvalues --   -0.21829  -0.19356  -0.11013
 Alpha virt. eigenvalues --    0.27459   0.30335   0.32239   0.33357   0.34945
 Alpha virt. eigenvalues --    0.35544   0.37794   0.38753   0.39228   0.40297
 Alpha virt. eigenvalues --    0.41162   0.41768   0.42591   0.42778   0.43494

  Beta  occ. eigenvalues --  -20.44750 -20.43519 -20.41163 -20.39857 -20.34363
  Beta  occ. eigenvalues --  -11.16743 -11.15442 -11.14412 -11.14357 -11.14218
  Beta  occ. eigenvalues --  -11.13571 -11.12297 -11.11934 -11.10662 -11.10255
  Beta  occ. eigenvalues --  -11.10056 -11.10002 -11.09730 -11.09516  -1.26513
  Beta  occ. eigenvalues --   -1.24146  -1.20026  -1.19147  -1.14447  -0.99489
  Beta  occ. eigenvalues --   -0.97005  -0.91229  -0.87853  -0.82940  -0.82327
  Beta  occ. eigenvalues --   -0.81542  -0.78887  -0.75121  -0.73767  -0.64309
  Beta  occ. eigenvalues --   -0.63706  -0.59451  -0.57498  -0.57043  -0.53972
  Beta  occ. eigenvalues --   -0.52834  -0.51595  -0.50745  -0.49417  -0.48872
  Beta  occ. eigenvalues --   -0.48546  -0.48160  -0.47722  -0.45907  -0.45216
  Beta  occ. eigenvalues --   -0.44740  -0.43093  -0.42760  -0.42358  -0.41234
  Beta  occ. eigenvalues --   -0.40549  -0.39834  -0.39509  -0.38372  -0.38125
  Beta  occ. eigenvalues --   -0.37212  -0.35893  -0.35553  -0.34739  -0.32936
  Beta  occ. eigenvalues --   -0.31447  -0.30023  -0.26597  -0.24286  -0.21948
  Beta  occ. eigenvalues --   -0.18638  -0.18288
  Beta virt. eigenvalues --    0.20576   0.29486   0.31996   0.33538   0.35011
  Beta virt. eigenvalues --    0.35518   0.37214   0.38234   0.38949   0.40098
  Beta virt. eigenvalues --    0.40701   0.41233   0.41976   0.42636   0.42926

 Mulliken charges and spin densities:
               1          2
     1  C   -0.053966   0.470149
     2  C   -0.518679  -0.063280
     3  C    0.424617  -0.224061
     4  O   -0.633938   0.462613
     5  C    0.266002   0.424486
     6  O   -0.664732  -0.013993
     7  C    0.249654  -0.347392
     8  O   -0.657063   0.013610
     9  C    0.463131   0.354907
    10  O   -0.814401   0.223209
    11  C   -0.067202  -0.337559
    12  C   -0.385617   0.020577
    13  H    0.147795   0.018534
    14  H    0.205732   0.002364
    15  H    0.144262   0.013084
    16  C   -0.165097   0.005839
    17  H    0.193993  -0.001210
    18  H    0.137074   0.000260
    19  H    0.137694   0.000555
    20  C   -0.158062  -0.007560
    21  H    0.130869  -0.000479
    22  H    0.136884  -0.000595
    23  H    0.192005   0.000303
    24  H    0.145340  -0.003459
    25  H    0.203610  -0.002802
    26  C   -0.195890   0.076579
    27  H    0.150672  -0.005316
    28  C   -0.538034   0.010247
    29  C    0.077366  -0.083668
    30  H    0.124093  -0.003297
    31  H    0.252706  -0.001693
    32  C   -0.499175   0.010223
    33  H    0.150531  -0.000445
    34  H    0.138417  -0.002667
    35  H    0.152339  -0.003039
    36  H    0.147464  -0.001905
    37  H    0.521873  -0.002441
    38  O   -0.946961  -0.000730
    39  H    0.404691   0.000052
 Sum of Mulliken charges =  -1.00000   1.00000

 Dipole moment (field-independent basis, Debye):
    X=              1.9873    Y=             -3.3585    Z=             -0.4468  Tot=              3.9279
 Quadrupole moment (field-independent basis, Debye-Ang):
   XX=           -149.9095   YY=           -148.5095   ZZ=           -115.7288
   XY=            -15.9222   XZ=             -6.4466   YZ=             -6.7007

 Normal termination of Gaussian 16 at Tue Oct 26 23:28:33 2021.
