 Gaussian 16, Revision C.01,
 Gaussian 16:  ES64L-G16RevC.01  3-Jul-2019

 --------------------------------------------------------------
 # HF/6-31G* Opt=(Z-matrix,MaxCycles=100) Geom=PrintInputOrient
 --------------------------------------------------------------

 ------------------------------------------------------------------
 <qmtool> simtype="Geometry optimization" </qmtool> Q1H-ACC-O5-120b
 ------------------------------------------------------------------
 Symbolic Z-matrix:
 Charge = -1 Multiplicity = 2

 SCF Done:  E(UHF) =  -915.914720457     A.U. after   38 cycles
 SCF Done:  E(UHF) =  -915.936812894     A.U. after   29 cycles
 SCF Done:  E(UHF) =  -915.974864284     A.U. after   31 cycles
 SCF Done:  E(UHF) =  -916.017883996     A.U. after   23 cycles
 SCF Done:  E(UHF) =  -916.037891695     A.U. after   33 cycles
 SCF Done:  E(UHF) =  -916.045263602     A.U. after   33 cycles
 SCF Done:  E(UHF) =  -916.047159965     A.U. after   33 cycles
 SCF Done:  E(UHF) =  -916.047905903     A.U. after   35 cycles
 SCF Done:  E(UHF) =  -916.047632526     A.U. after   36 cycles
 SCF Done:  E(UHF) =  -916.048156944     A.U. after   30 cycles
 SCF Done:  E(UHF) =  -916.048158730     A.U. after   18 cycles
 SCF Done:  E(UHF) =  -916.048159742     A.U. after    7 cycles
 SCF Done:  E(UHF) =  -916.048160890     A.U. after    7 cycles
 SCF Done:  E(UHF) =  -916.048162251     A.U. after   17 cycles
 SCF Done:  E(UHF) =  -916.048162259     A.U. after    6 cycles
 Optimization completed.
    -- Stationary point found.

                         Standard orientation:
 ---------------------------------------------------------------------
 Center     Atomic      Atomic             Coordinates (Angstroms)
 Number     Number       Type             X           Y           Z
 ---------------------------------------------------------------------
      1          6           0       -0.741916   -1.497983   -0.731561
      2          6           0       -0.341759   -2.892272   -1.144347
      3          6           0       -2.160886   -1.308704   -0.431580
      4          8           0       -3.000274   -2.241443   -0.519066
      5          6           0       -2.561551    0.038078   -0.036737
      6          8           0       -3.901046    0.312960    0.191398
      7          6           0       -1.647779    1.058800    0.069724
      8          8           0       -2.063216    2.299770    0.519033
      9          6           0       -0.245959    0.891627   -0.265954
     10          8           0        0.572414    1.882030   -0.229450
     11          6           0        0.152706   -0.453844   -0.643701
     12          6           0        1.623082   -0.617529   -0.923898
     13          1           0        0.252348   -3.397384   -0.373472
     14          1           0       -1.252714   -3.472964   -1.304398
     15          1           0        0.253107   -2.888619   -2.063805
     16          6           0       -4.443947   -0.420570    1.293568
     17          1           0       -4.338521   -1.493481    1.130332
     18          1           0       -3.948941   -0.123780    2.228199
     19          1           0       -5.499872   -0.143152    1.345155
     20          6           0       -2.119397    3.241147   -0.550227
     21          1           0       -2.847845    2.922006   -1.306368
     22          1           0       -2.447384    4.185974   -0.107873
     23          1           0       -1.130733    3.363407   -0.999761
     24          1           0        1.780538   -1.291532   -1.779031
     25          1           0        2.021239    0.362308   -1.196140
     26          6           0        2.333017   -1.187673    0.273493
     27          1           0        2.171699   -2.253473    0.444266
     28          6           0        3.381205    0.953869    1.078146
     29          6           0        3.097401   -0.523916    1.151772
     30          1           0        4.383426    1.144123    0.667624
     31          1           0        2.628818    1.476291    0.483849
     32          6           0        3.748950   -1.245448    2.302820
     33          1           0        3.525562   -2.317394    2.283841
     34          1           0        4.839678   -1.120670    2.277458
     35          1           0        3.407083   -0.839900    3.264186
     36          1           0        3.365274    1.383541    2.087013
     37          1           0        5.113028    1.235983   -1.355736
     38          8           0        6.029013    1.105655   -1.582943
     39          1           0        6.190066    0.183445   -1.406226
 ---------------------------------------------------------------------

 The electronic state is 2-A.
 Alpha  occ. eigenvalues --  -20.47897 -20.44270 -20.43376 -20.40074 -20.35642
 Alpha  occ. eigenvalues --  -11.15437 -11.15033 -11.14540 -11.14325 -11.13622
 Alpha  occ. eigenvalues --  -11.13362 -11.12725 -11.12256 -11.11208 -11.10253
 Alpha  occ. eigenvalues --  -11.10176 -11.10136 -11.09707 -11.08994  -1.26381
 Alpha  occ. eigenvalues --   -1.26353  -1.24071  -1.21814  -1.16901  -0.99877
 Alpha  occ. eigenvalues --   -0.97645  -0.91198  -0.88373  -0.83424  -0.82743
 Alpha  occ. eigenvalues --   -0.81323  -0.79152  -0.75801  -0.74315  -0.64434
 Alpha  occ. eigenvalues --   -0.63813  -0.62932  -0.59645  -0.57368  -0.53956
 Alpha  occ. eigenvalues --   -0.52821  -0.51937  -0.51026  -0.49888  -0.49384
 Alpha  occ. eigenvalues --   -0.48833  -0.48551  -0.48220  -0.47863  -0.46294
 Alpha  occ. eigenvalues --   -0.45323  -0.44809  -0.43659  -0.42921  -0.42459
 Alpha  occ. eigenvalues --   -0.41678  -0.41297  -0.40968  -0.40383  -0.39528
 Alpha  occ. eigenvalues --   -0.39140  -0.38003  -0.37458  -0.36609  -0.35282
 Alpha  occ. eigenvalues --   -0.33258  -0.31057  -0.27545  -0.27062  -0.24867
 Alpha  occ. eigenvalues --   -0.22137  -0.18637  -0.10237
 Alpha virt. eigenvalues --    0.27339   0.28307   0.30414   0.32640   0.34055
 Alpha virt. eigenvalues --    0.35448   0.36693   0.38024   0.39028   0.39355
 Alpha virt. eigenvalues --    0.40655   0.41421   0.42036   0.43072   0.43375

  Beta  occ. eigenvalues --  -20.47897 -20.44253 -20.43374 -20.38183 -20.34196
  Beta  occ. eigenvalues --  -11.15727 -11.15006 -11.14361 -11.13971 -11.13784
  Beta  occ. eigenvalues --  -11.13216 -11.12716 -11.12341 -11.11145 -11.10244
  Beta  occ. eigenvalues --  -11.10156 -11.09808 -11.09534 -11.09322  -1.26353
  Beta  occ. eigenvalues --   -1.26123  -1.23822  -1.17973  -1.13760  -0.99602
  Beta  occ. eigenvalues --   -0.96839  -0.90946  -0.87742  -0.83340  -0.82228
  Beta  occ. eigenvalues --   -0.81320  -0.78759  -0.74684  -0.73604  -0.63916
  Beta  occ. eigenvalues --   -0.63086  -0.62928  -0.59631  -0.57237  -0.53622
  Beta  occ. eigenvalues --   -0.52551  -0.51700  -0.50453  -0.49881  -0.49304
  Beta  occ. eigenvalues --   -0.48648  -0.48559  -0.48082  -0.47415  -0.45463
  Beta  occ. eigenvalues --   -0.44463  -0.43894  -0.43423  -0.42386  -0.41706
  Beta  occ. eigenvalues --   -0.41381  -0.40820  -0.39961  -0.39228  -0.38006
  Beta  occ. eigenvalues --   -0.37926  -0.36790  -0.35658  -0.34876  -0.32416
  Beta  occ. eigenvalues --   -0.30991  -0.29323  -0.25593  -0.23857  -0.22095
  Beta  occ. eigenvalues --   -0.18084  -0.16933
  Beta virt. eigenvalues --    0.21048   0.28257   0.29321   0.32394   0.34182
  Beta virt. eigenvalues --    0.35431   0.36691   0.37691   0.38290   0.39239
  Beta virt. eigenvalues --    0.40360   0.41062   0.41603   0.42229   0.43204

 Mulliken charges and spin densities:
               1          2
     1  C   -0.060057   0.340116
     2  C   -0.518621  -0.047940
     3  C    0.427116  -0.129154
     4  O   -0.660551   0.416760
     5  C    0.260533   0.299258
     6  O   -0.665967  -0.009810
     7  C    0.249461  -0.215779
     8  O   -0.658237   0.008473
     9  C    0.438060   0.217128
    10  O   -0.756120   0.290971
    11  C   -0.064543  -0.194367
    12  C   -0.392598   0.009527
    13  H    0.143284   0.014069
    14  H    0.207963   0.001502
    15  H    0.140861   0.010046
    16  C   -0.163423   0.003608
    17  H    0.196594  -0.000927
    18  H    0.133418   0.000044
    19  H    0.134610   0.000487
    20  C   -0.156513  -0.005295
    21  H    0.132897  -0.000478
    22  H    0.131266  -0.000242
    23  H    0.190578  -0.000170
    24  H    0.146063  -0.001685
    25  H    0.205008  -0.001878
    26  C   -0.192501   0.041501
    27  H    0.154725  -0.002732
    28  C   -0.564897   0.005548
    29  C    0.068595  -0.045691
    30  H    0.118279  -0.001757
    31  H    0.278053  -0.002325
    32  C   -0.498234   0.005504
    33  H    0.152730  -0.000240
    34  H    0.136695  -0.001429
    35  H    0.153520  -0.001620
    36  H    0.146446  -0.001037
    37  H    0.460915   0.000020
    38  O   -0.887066  -0.000009
    39  H    0.431658   0.000003
 Sum of Mulliken charges =  -1.00000   1.00000

 Dipole moment (field-independent basis, Debye):
    X=              2.9088    Y=             -2.4782    Z=              1.3183  Tot=              4.0423
 Quadrupole moment (field-independent basis, Debye-Ang):
   XX=           -166.6955   YY=           -137.7743   ZZ=           -121.2577
   XY=            -19.8152   XZ=              1.6943   YZ=             -2.8684

 Normal termination of Gaussian 16 at Tue Oct 26 23:36:30 2021.
