 Gaussian 16, Revision C.01,
 Gaussian 16:  ES64L-G16RevC.01  3-Jul-2019

 --------------------------------------------------------------
 # HF/6-31G* Opt=(Z-matrix,MaxCycles=100) Geom=PrintInputOrient
 --------------------------------------------------------------

 ------------------------------------------------------------------
 <qmtool> simtype="Geometry optimization" </qmtool> Q1H-ACC-O5-120a
 ------------------------------------------------------------------
 Symbolic Z-matrix:
 Charge = -1 Multiplicity = 2

 SCF Done:  E(UHF) =  -916.026929951     A.U. after   42 cycles
 SCF Done:  E(UHF) =  -916.035860498     A.U. after   23 cycles
 SCF Done:  E(UHF) =  -916.041933747     A.U. after   32 cycles
 SCF Done:  E(UHF) =  -916.047178188     A.U. after   34 cycles
 SCF Done:  E(UHF) =  -916.050158205     A.U. after   33 cycles
 SCF Done:  E(UHF) =  -916.050215683     A.U. after   18 cycles
 SCF Done:  E(UHF) =  -916.050324557     A.U. after   19 cycles
 SCF Done:  E(UHF) =  -916.050490876     A.U. after   30 cycles
 SCF Done:  E(UHF) =  -916.050734836     A.U. after   31 cycles
 SCF Done:  E(UHF) =  -916.050800151     A.U. after   22 cycles
 SCF Done:  E(UHF) =  -916.050801409     A.U. after   17 cycles
 SCF Done:  E(UHF) =  -916.050803556     A.U. after   16 cycles
 SCF Done:  E(UHF) =  -916.050796543     A.U. after   18 cycles
 SCF Done:  E(UHF) =  -916.050807491     A.U. after   32 cycles
 SCF Done:  E(UHF) =  -916.050808374     A.U. after   16 cycles
 SCF Done:  E(UHF) =  -916.050809040     A.U. after   15 cycles
 SCF Done:  E(UHF) =  -916.050804696     A.U. after   18 cycles
 SCF Done:  E(UHF) =  -916.050809563     A.U. after   16 cycles
 SCF Done:  E(UHF) =  -916.050809569     A.U. after    6 cycles
 Optimization completed.
    -- Stationary point found.

                         Standard orientation:
 ---------------------------------------------------------------------
 Center     Atomic      Atomic             Coordinates (Angstroms)
 Number     Number       Type             X           Y           Z
 ---------------------------------------------------------------------
      1          6           0        0.259957   -1.936746   -0.618511
      2          6           0        1.056017   -3.186395   -0.899978
      3          6           0       -1.110140   -2.149745   -0.152941
      4          8           0       -1.602255   -3.297679   -0.003615
      5          6           0       -1.892726   -0.947702    0.117074
      6          8           0       -3.222474   -1.067836    0.490157
      7          6           0       -1.357747    0.308806   -0.035146
      8          8           0       -2.114746    1.416245    0.303979
      9          6           0       -0.014195    0.531264   -0.536253
     10          8           0        0.434738    1.718212   -0.740161
     11          6           0        0.767602   -0.667338   -0.789370
     12          6           0        2.179440   -0.411160   -1.245869
     13          1           0        1.848847   -3.347244   -0.159778
     14          1           0        0.374890   -4.038981   -0.857271
     15          1           0        1.532578   -3.151001   -1.885330
     16          6           0       -3.394989   -1.740101    1.741509
     17          1           0       -2.959166   -2.738891    1.704428
     18          1           0       -2.943282   -1.153818    2.553225
     19          1           0       -4.474525   -1.799217    1.901854
     20          6           0       -2.570896    2.102806   -0.859302
     21          1           0       -3.219004    1.452819   -1.460727
     22          1           0       -3.149318    2.958968   -0.501022
     23          1           0       -1.720877    2.449245   -1.452541
     24          1           0        2.472055   -1.135104   -2.020858
     25          1           0        2.209047    0.584421   -1.693828
     26          6           0        3.140483   -0.526256   -0.094362
     27          1           0        3.352778   -1.545709    0.232388
     28          6           0        3.497197    1.936953    0.276744
     29          6           0        3.720469    0.477737    0.577830
     30          1           0        4.341186    2.357716   -0.288773
     31          1           0        2.565521    2.094211   -0.270477
     32          6           0        4.672013    0.195132    1.711291
     33          1           0        4.811041   -0.880779    1.861010
     34          1           0        5.654977    0.645904    1.520279
     35          1           0        4.303245    0.628200    2.650455
     36          1           0        3.431373    2.501534    1.214614
     37          1           0       -1.479235    4.340874   -0.110752
     38          8           0       -2.030585    5.096373    0.070559
     39          1           0       -2.384458    4.930801    0.939465
 ---------------------------------------------------------------------

 The electronic state is 2-A.
 Alpha  occ. eigenvalues --  -20.45710 -20.44473 -20.43847 -20.40463 -20.35567
 Alpha  occ. eigenvalues --  -11.15598 -11.15237 -11.14765 -11.14430 -11.13683
 Alpha  occ. eigenvalues --  -11.13448 -11.12298 -11.11694 -11.10650 -11.10185
 Alpha  occ. eigenvalues --  -11.09703 -11.09661 -11.09571 -11.08911  -1.26677
 Alpha  occ. eigenvalues --   -1.24487  -1.24226  -1.22135  -1.16879  -0.99581
 Alpha  occ. eigenvalues --   -0.97370  -0.91190  -0.88182  -0.83098  -0.82456
 Alpha  occ. eigenvalues --   -0.81551  -0.79089  -0.75922  -0.74124  -0.64496
 Alpha  occ. eigenvalues --   -0.63916  -0.60837  -0.59232  -0.57392  -0.54144
 Alpha  occ. eigenvalues --   -0.53064  -0.51601  -0.51255  -0.49455  -0.49039
 Alpha  occ. eigenvalues --   -0.48734  -0.48253  -0.47859  -0.47006  -0.46409
 Alpha  occ. eigenvalues --   -0.45393  -0.44782  -0.43204  -0.42697  -0.42405
 Alpha  occ. eigenvalues --   -0.41175  -0.40642  -0.40293  -0.40079  -0.39288
 Alpha  occ. eigenvalues --   -0.39048  -0.37870  -0.37361  -0.36416  -0.34819
 Alpha  occ. eigenvalues --   -0.33481  -0.31408  -0.27682  -0.27270  -0.24857
 Alpha  occ. eigenvalues --   -0.21663  -0.18766  -0.10353
 Alpha virt. eigenvalues --    0.27531   0.30425   0.31992   0.32679   0.33718
 Alpha virt. eigenvalues --    0.35572   0.37989   0.38771   0.39500   0.40163
 Alpha virt. eigenvalues --    0.41114   0.41719   0.42427   0.42937   0.43292

  Beta  occ. eigenvalues --  -20.45710 -20.44454 -20.43844 -20.38535 -20.34176
  Beta  occ. eigenvalues --  -11.15929 -11.15206 -11.14469 -11.14122 -11.13935
  Beta  occ. eigenvalues --  -11.13219 -11.12284 -11.11809 -11.10562 -11.09768
  Beta  occ. eigenvalues --  -11.09680 -11.09557 -11.09537 -11.09298  -1.26434
  Beta  occ. eigenvalues --   -1.24303  -1.24127  -1.18218  -1.13840  -0.99193
  Beta  occ. eigenvalues --   -0.96681  -0.90952  -0.87529  -0.82803  -0.82131
  Beta  occ. eigenvalues --   -0.81571  -0.78691  -0.74785  -0.73440  -0.63965
  Beta  occ. eigenvalues --   -0.63198  -0.60838  -0.59217  -0.57276  -0.53785
  Beta  occ. eigenvalues --   -0.52790  -0.51340  -0.50757  -0.49235  -0.48803
  Beta  occ. eigenvalues --   -0.48765  -0.48091  -0.47554  -0.47020  -0.45497
  Beta  occ. eigenvalues --   -0.44408  -0.43766  -0.42846  -0.42250  -0.41248
  Beta  occ. eigenvalues --   -0.40387  -0.40313  -0.39691  -0.39020  -0.38029
  Beta  occ. eigenvalues --   -0.37572  -0.36657  -0.35472  -0.34787  -0.32595
  Beta  occ. eigenvalues --   -0.31280  -0.29505  -0.25811  -0.23821  -0.21694
  Beta  occ. eigenvalues --   -0.18185  -0.17164
  Beta virt. eigenvalues --    0.20981   0.29601   0.31708   0.32513   0.33932
  Beta virt. eigenvalues --    0.35545   0.37512   0.38600   0.39012   0.40259
  Beta virt. eigenvalues --    0.40507   0.41256   0.41848   0.42545   0.43114

 Mulliken charges and spin densities:
               1          2
     1  C   -0.059333   0.363709
     2  C   -0.518098  -0.050627
     3  C    0.426392  -0.150155
     4  O   -0.654675   0.427056
     5  C    0.262245   0.335662
     6  O   -0.666137  -0.011072
     7  C    0.248828  -0.247571
     8  O   -0.669868   0.009755
     9  C    0.439679   0.246988
    10  O   -0.769275   0.276293
    11  C   -0.065051  -0.227361
    12  C   -0.390949   0.011305
    13  H    0.144929   0.014826
    14  H    0.206447   0.001671
    15  H    0.142429   0.010558
    16  C   -0.163629   0.004254
    17  H    0.197021  -0.001007
    18  H    0.132475   0.000108
    19  H    0.135489   0.000518
    20  C   -0.192146  -0.005815
    21  H    0.141264  -0.000418
    22  H    0.154456  -0.000301
    23  H    0.186151  -0.000123
    24  H    0.145134  -0.001971
    25  H    0.214369  -0.001991
    26  C   -0.192916   0.057264
    27  H    0.151091  -0.003896
    28  C   -0.547681   0.007557
    29  C    0.076311  -0.061891
    30  H    0.126460  -0.002408
    31  H    0.274364  -0.002303
    32  C   -0.498419   0.007543
    33  H    0.151176  -0.000330
    34  H    0.137599  -0.001979
    35  H    0.149439  -0.002210
    36  H    0.135581  -0.001412
    37  H    0.476526  -0.000216
    38  O   -0.897408  -0.000004
    39  H    0.429728  -0.000007
 Sum of Mulliken charges =  -1.00000   1.00000

 Dipole moment (field-independent basis, Debye):
    X=              2.6270    Y=             -0.6945    Z=              2.0501  Tot=              3.4039
 Quadrupole moment (field-independent basis, Debye-Ang):
   XX=           -140.2026   YY=           -162.3061   ZZ=           -115.3663
   XY=             -6.0061   XZ=             -3.1909   YZ=              4.3016

 Normal termination of Gaussian 16 at Tue Oct 26 23:27:24 2021.
