 Gaussian 16, Revision C.01,
 Gaussian 16:  ES64L-G16RevC.01  3-Jul-2019

 ---------------------
 # HF/6-31G* SCF=Tight
 ---------------------

 ---------------------------------------------------------------
 <qmtool> simtype="Single point calculation" </qmtool> Q1H-sp-HF
 ---------------------------------------------------------------
 Symbolic Z-matrix:
 Charge = -1 Multiplicity = 2

                         Standard orientation:
 ---------------------------------------------------------------------
 Center     Atomic      Atomic             Coordinates (Angstroms)
 Number     Number       Type             X           Y           Z
 ---------------------------------------------------------------------
      1          6           0       -0.226993   -1.531029   -0.655888
      2          6           0        0.283959   -2.912047   -0.981888
      3          6           0       -1.609991   -1.461982   -0.184888
      4          8           0       -2.335026   -2.482957   -0.065888
      5          6           0       -2.117945   -0.129964    0.128112
      6          8           0       -3.441939    0.024082    0.509112
      7          6           0       -1.327906    0.988009    0.009112
      8          8           0       -1.830864    2.220026    0.388112
      9          6           0        0.031092    0.934962   -0.496888
     10          8           0        0.722129    2.004938   -0.668888
     11          6           0        0.539046   -0.394056   -0.792888
     12          6           0        1.972045   -0.430105   -1.253888
     13          1           0        1.025947   -3.261073   -0.253888
     14          1           0       -0.563065   -3.601018   -0.958888
     15          1           0        0.754958   -2.948063   -1.969888
     16          6           0       -3.750962   -0.634908    1.741112
     17          1           0       -3.537999   -1.701915    1.670112
     18          1           0       -3.182947   -0.183927    2.566112
     19          1           0       -4.817956   -0.467871    1.909112
     20          6           0       -2.132836    3.024036   -0.749888
     21          1           0       -2.905852    2.546063   -1.364888
     22          1           0       -2.514803    3.972049   -0.360888
     23          1           0       -1.229830    3.200005   -1.339888
     24          1           0        2.102019   -1.175110   -2.052888
     25          1           0        2.212079    0.549886   -1.671888
     26          6           0        2.889033   -0.783137   -0.114888
     27          1           0        2.879996   -1.834137    0.179112
     28          6           0        3.763113    1.534833    0.327112
     29          6           0        3.671062    0.052836    0.582112
     30          1           0        4.676121    1.783801   -0.232888
     31          1           0        2.885125    1.903863   -0.206888
     32          6           0        4.543044   -0.461194    1.698112
     33          1           0        4.450006   -1.546191    1.814112
     34          1           0        5.599052   -0.224231    1.512112
     35          1           0        4.277060    0.010815    2.653112
     36          1           0        3.821131    2.070831    1.282112
 ---------------------------------------------------------------------

 SCF Done:  E(UHF) =  -840.032367663     A.U. after   44 cycles

 The electronic state is 2-A.
 Alpha  occ. eigenvalues --  -20.43915 -20.43079 -20.39410 -20.35382 -11.14972
 Alpha  occ. eigenvalues --  -11.14716 -11.14098 -11.14090 -11.13212 -11.13014
 Alpha  occ. eigenvalues --  -11.12058 -11.11424 -11.10366 -11.09587 -11.09381
 Alpha  occ. eigenvalues --  -11.09315 -11.09228 -11.08552  -1.26018  -1.23730
 Alpha  occ. eigenvalues --   -1.21239  -1.16604  -0.99195  -0.96976  -0.90689
 Alpha  occ. eigenvalues --   -0.87755  -0.82723  -0.82107  -0.80992  -0.78637
 Alpha  occ. eigenvalues --   -0.75400  -0.73698  -0.63963  -0.63360  -0.58890
 Alpha  occ. eigenvalues --   -0.56881  -0.53559  -0.52422  -0.51203  -0.50647
 Alpha  occ. eigenvalues --   -0.49023  -0.48420  -0.48073  -0.47780  -0.47407
 Alpha  occ. eigenvalues --   -0.45792  -0.44841  -0.44325  -0.42800  -0.42278
 Alpha  occ. eigenvalues --   -0.41875  -0.40740  -0.40224  -0.39820  -0.39051
 Alpha  occ. eigenvalues --   -0.38637  -0.37628  -0.36997  -0.36085  -0.34528
 Alpha  occ. eigenvalues --   -0.32833  -0.30755  -0.27063  -0.26533  -0.24501
 Alpha  occ. eigenvalues --   -0.21342  -0.18129  -0.09801
 Alpha virt. eigenvalues --    0.27898   0.30843   0.33058   0.33979   0.35887
 Alpha virt. eigenvalues --    0.38231   0.39105   0.39590   0.40455   0.41390
 Alpha virt. eigenvalues --    0.42164   0.42720   0.43353   0.43937   0.44447

  Beta  occ. eigenvalues --  -20.43899 -20.43077 -20.37557 -20.33902 -11.15227
  Beta  occ. eigenvalues --  -11.14692 -11.14123 -11.13568 -11.13393 -11.12833
  Beta  occ. eigenvalues --  -11.12048 -11.11515 -11.10293 -11.09367 -11.09322
  Beta  occ. eigenvalues --  -11.09305 -11.09037 -11.08834  -1.25783  -1.23494
  Beta  occ. eigenvalues --   -1.17454  -1.13385  -0.98838  -0.96245  -0.90444
  Beta  occ. eigenvalues --   -0.87143  -0.82511  -0.81701  -0.80980  -0.78229
  Beta  occ. eigenvalues --   -0.74238  -0.73030  -0.63429  -0.62651  -0.58869
  Beta  occ. eigenvalues --   -0.56756  -0.53217  -0.52153  -0.50968  -0.50100
  Beta  occ. eigenvalues --   -0.48886  -0.48265  -0.48079  -0.47653  -0.46994
  Beta  occ. eigenvalues --   -0.44962  -0.43984  -0.43269  -0.42547  -0.41835
  Beta  occ. eigenvalues --   -0.40875  -0.40023  -0.39319  -0.38778  -0.37603
  Beta  occ. eigenvalues --   -0.37491  -0.36215  -0.35049  -0.34334  -0.32014
  Beta  occ. eigenvalues --   -0.30638  -0.28882  -0.25075  -0.23402  -0.21340
  Beta  occ. eigenvalues --   -0.17589  -0.16438
  Beta virt. eigenvalues --    0.21453   0.29905   0.32672   0.34217   0.35852
  Beta virt. eigenvalues --    0.37992   0.38487   0.39272   0.40473   0.40957
  Beta virt. eigenvalues --    0.41609   0.42409   0.42825   0.43513   0.43930

 Mulliken charges and spin densities:
               1          2
     1  C   -0.062556   0.311827
     2  C   -0.517635  -0.044540
     3  C    0.428260  -0.111075
     4  O   -0.666786   0.406370
     5  C    0.258519   0.280765
     6  O   -0.666592  -0.009243
     7  C    0.249133  -0.194081
     8  O   -0.658576   0.007602
     9  C    0.436005   0.201837
    10  O   -0.751299   0.299727
    11  C   -0.063617  -0.170427
    12  C   -0.390907   0.006575
    13  H    0.143307   0.013061
    14  H    0.206559   0.001329
    15  H    0.140161   0.009356
    16  C   -0.162722   0.003309
    17  H    0.197008  -0.000883
    18  H    0.132686   0.000009
    19  H    0.133092   0.000482
    20  C   -0.155690  -0.004899
    21  H    0.132470  -0.000487
    22  H    0.129954  -0.000176
    23  H    0.190099  -0.000240
    24  H    0.144244  -0.001206
    25  H    0.212655  -0.001603
    26  C   -0.191974   0.045426
    27  H    0.151120  -0.003026
    28  C   -0.547437   0.005969
    29  C    0.076312  -0.048780
    30  H    0.124357  -0.001876
    31  H    0.275262  -0.002374
    32  C   -0.498296   0.005915
    33  H    0.150932  -0.000259
    34  H    0.136326  -0.001559
    35  H    0.149645  -0.001714
    36  H    0.135981  -0.001109
 Sum of Mulliken charges =  -1.00000   1.00000

 Dipole moment (field-independent basis, Debye):
    X=              2.8967    Y=             -0.8061    Z=              0.7081  Tot=              3.0890
 Quadrupole moment (field-independent basis, Debye-Ang):
   XX=           -138.6814   YY=           -133.2126   ZZ=           -110.6775
   XY=            -10.3254   XZ=             -0.3224   YZ=             -2.6398

 Normal termination of Gaussian 16 at Tue Oct 26 23:27:50 2021.
