 Gaussian 16, Revision C.01,
 Gaussian 16:  ES64L-G16RevC.01  3-Jul-2019

 --------------------------------------------------------------
 # HF/6-31G* Opt=(Z-matrix,MaxCycles=100) Geom=PrintInputOrient
 --------------------------------------------------------------

 -------------------------------------------------------------
 <qmtool> simtype="Geometry optimization" </qmtool> Q1H-ACC-O2
 -------------------------------------------------------------
 Symbolic Z-matrix:
 Charge = -1 Multiplicity = 2

 SCF Done:  E(UHF) =  -916.058817890     A.U. after   48 cycles
 SCF Done:  E(UHF) =  -916.059086882     A.U. after   36 cycles
 SCF Done:  E(UHF) =  -916.059459702     A.U. after   36 cycles
 SCF Done:  E(UHF) =  -916.059627770     A.U. after   33 cycles
 SCF Done:  E(UHF) =  -916.059656729     A.U. after   33 cycles
 SCF Done:  E(UHF) =  -916.059658023     A.U. after   17 cycles
 SCF Done:  E(UHF) =  -916.059390648     A.U. after   37 cycles
 SCF Done:  E(UHF) =  -916.059646571     A.U. after   36 cycles
 SCF Done:  E(UHF) =  -916.059643191     A.U. after   32 cycles
 SCF Done:  E(UHF) =  -916.059654994     A.U. after   31 cycles
 SCF Done:  E(UHF) =  -916.059658070     A.U. after    2 cycles
 SCF Done:  E(UHF) =  -916.059661691     A.U. after   20 cycles
 SCF Done:  E(UHF) =  -916.059661704     A.U. after    7 cycles
 Optimization completed.
    -- Stationary point found.

                         Standard orientation:
 ---------------------------------------------------------------------
 Center     Atomic      Atomic             Coordinates (Angstroms)
 Number     Number       Type             X           Y           Z
 ---------------------------------------------------------------------
      1          6           0       -0.328076   -1.153632   -0.680598
      2          6           0       -0.275390   -2.621646   -1.022234
      3          6           0       -1.622257   -0.658010   -0.212898
      4          8           0       -2.632483   -1.400188   -0.108773
      5          6           0       -1.687426    0.762695    0.115138
      6          8           0       -2.898252    1.321403    0.494079
      7          6           0       -0.584981    1.576482    0.012413
      8          8           0       -0.677314    2.899983    0.405214
      9          6           0        0.691691    1.103980   -0.490156
     10          8           0        1.685420    1.903942   -0.646769
     11          6           0        0.757689   -0.314063   -0.801156
     12          6           0        2.109646   -0.794209   -1.258298
     13          1           0        0.314176   -3.194327   -0.296426
     14          1           0       -1.296302   -3.009277   -1.010333
     15          1           0        0.167009   -2.793303   -2.009198
     16          6           0       -3.407218    0.779782    1.716857
     17          1           0       -3.540306   -0.299195    1.633220
     18          1           0       -2.731736    1.020106    2.549093
     19          1           0       -4.368579    1.272263    1.883742
     20          6           0       -0.703306    3.770498   -0.723587
     21          1           0       -1.583283    3.566781   -1.346788
     22          1           0       -0.770220    4.786258   -0.323961
     23          1           0        0.213163    3.659769   -1.308659
     24          1           0        2.004006   -1.533530   -2.066115
     25          1           0        2.648634    0.064945   -1.663354
     26          6           0        2.861288   -1.430231   -0.121052
     27          1           0        2.520056   -2.428123    0.159819
     28          6           0        4.417272    0.489967    0.352360
     29          6           0        3.861902   -0.890452    0.588624
     30          1           0        5.366001    0.445051   -0.201775
     31          1           0        3.703602    1.122322   -0.179620
     32          6           0        4.520327   -1.664870    1.700734
     33          1           0        4.089865   -2.666661    1.802946
     34          1           0        5.598490   -1.770247    1.520845
     35          1           0        4.409924   -1.143554    2.660737
     36          1           0        4.634542    0.970059    1.314125
     37          1           0       -4.129851   -2.500137    0.045588
     38          8           0       -4.895017   -3.062219    0.124468
     39          1           0       -5.574989   -2.610325   -0.366518
 ---------------------------------------------------------------------

 The electronic state is 2-A.
 Alpha  occ. eigenvalues --  -20.44351 -20.44228 -20.41155 -20.40675 -20.36941
 Alpha  occ. eigenvalues --  -11.15552 -11.15324 -11.15175 -11.14946 -11.14732
 Alpha  occ. eigenvalues --  -11.14175 -11.12692 -11.12445 -11.11168 -11.10521
 Alpha  occ. eigenvalues --  -11.10448 -11.10442 -11.09574 -11.09375  -1.26825
 Alpha  occ. eigenvalues --   -1.24507  -1.21032  -1.20335  -1.19384  -1.00323
 Alpha  occ. eigenvalues --   -0.97871  -0.91626  -0.88196  -0.83558  -0.82946
 Alpha  occ. eigenvalues --   -0.82063  -0.79241  -0.76500  -0.74363  -0.64851
 Alpha  occ. eigenvalues --   -0.64491  -0.59811  -0.57912  -0.57264  -0.54256
 Alpha  occ. eigenvalues --   -0.53198  -0.52160  -0.51373  -0.49878  -0.49319
 Alpha  occ. eigenvalues --   -0.48867  -0.48510  -0.48254  -0.46508  -0.46170
 Alpha  occ. eigenvalues --   -0.45018  -0.44087  -0.43387  -0.42771  -0.42319
 Alpha  occ. eigenvalues --   -0.41812  -0.41157  -0.40567  -0.39886  -0.39505
 Alpha  occ. eigenvalues --   -0.38551  -0.37454  -0.37410  -0.35743  -0.35617
 Alpha  occ. eigenvalues --   -0.33084  -0.32297  -0.28326  -0.27747  -0.25709
 Alpha  occ. eigenvalues --   -0.22330  -0.18840  -0.10866
 Alpha virt. eigenvalues --    0.27192   0.29707   0.31911   0.33325   0.35173
 Alpha virt. eigenvalues --    0.35851   0.37625   0.38517   0.39189   0.39838
 Alpha virt. eigenvalues --    0.40898   0.41404   0.41944   0.42858   0.42929

  Beta  occ. eigenvalues --  -20.44349 -20.44232 -20.41161 -20.38677 -20.35658
  Beta  occ. eigenvalues --  -11.15763 -11.15298 -11.14800 -11.14757 -11.14550
  Beta  occ. eigenvalues --  -11.14409 -11.12707 -11.12318 -11.11245 -11.10561
  Beta  occ. eigenvalues --  -11.10459 -11.09991 -11.09828 -11.09355  -1.26625
  Beta  occ. eigenvalues --   -1.24304  -1.20087  -1.17048  -1.16606  -0.99747
  Beta  occ. eigenvalues --   -0.97143  -0.91318  -0.88019  -0.83382  -0.82388
  Beta  occ. eigenvalues --   -0.81783  -0.78874  -0.74999  -0.74180  -0.64316
  Beta  occ. eigenvalues --   -0.63769  -0.59689  -0.57743  -0.57211  -0.53965
  Beta  occ. eigenvalues --   -0.52953  -0.51901  -0.50830  -0.49587  -0.49095
  Beta  occ. eigenvalues --   -0.48703  -0.48346  -0.47800  -0.45810  -0.45324
  Beta  occ. eigenvalues --   -0.44611  -0.43508  -0.43003  -0.42194  -0.41756
  Beta  occ. eigenvalues --   -0.40897  -0.40079  -0.39418  -0.38501  -0.38089
  Beta  occ. eigenvalues --   -0.37095  -0.36197  -0.35685  -0.35037  -0.33105
  Beta  occ. eigenvalues --   -0.31502  -0.30408  -0.26427  -0.24760  -0.22284
  Beta  occ. eigenvalues --   -0.18443  -0.17902
  Beta virt. eigenvalues --    0.20184   0.28895   0.31981   0.33572   0.35190
  Beta virt. eigenvalues --    0.35760   0.37366   0.37853   0.38691   0.39829
  Beta virt. eigenvalues --    0.40125   0.41053   0.41668   0.42086   0.42956

 Mulliken charges and spin densities:
               1          2
     1  C   -0.072389  -0.153889
     2  C   -0.517837   0.011702
     3  C    0.456311   0.221567
     4  O   -0.773708   0.251686
     5  C    0.252049  -0.158295
     6  O   -0.668745   0.005611
     7  C    0.259438   0.242889
     8  O   -0.656538  -0.010249
     9  C    0.431244  -0.097098
    10  O   -0.674571   0.438638
    11  C   -0.048871   0.279974
    12  C   -0.395135  -0.029181
    13  H    0.144904  -0.003739
    14  H    0.216633  -0.001520
    15  H    0.137598  -0.002079
    16  C   -0.166181  -0.004024
    17  H    0.204820   0.000294
    18  H    0.131594  -0.000757
    19  H    0.133715   0.000053
    20  C   -0.158313   0.003628
    21  H    0.139617  -0.000430
    22  H    0.136361   0.001005
    23  H    0.182766  -0.001207
    24  H    0.153536   0.004517
    25  H    0.208086   0.001888
    26  C   -0.193143  -0.060391
    27  H    0.158903   0.004633
    28  C   -0.544993  -0.008110
    29  C    0.074816   0.067325
    30  H    0.130424   0.002885
    31  H    0.262736  -0.002101
    32  C   -0.499299  -0.008510
    33  H    0.155277   0.000369
    34  H    0.138637   0.002178
    35  H    0.151499   0.002623
    36  H    0.139974   0.001548
    37  H    0.512864  -0.002700
    38  O   -0.949633  -0.000789
    39  H    0.405553   0.000057
 Sum of Mulliken charges =  -1.00000   1.00000

 Dipole moment (field-independent basis, Debye):
    X=              3.9516    Y=              1.0654    Z=             -0.5331  Tot=              4.1273
 Quadrupole moment (field-independent basis, Debye-Ang):
   XX=           -155.8953   YY=           -146.4362   ZZ=           -117.0843
   XY=            -21.3034   XZ=              4.4959   YZ=             -0.1270

 Normal termination of Gaussian 16 at Tue Oct 26 23:24:22 2021.
