 Gaussian 16, Revision C.01,
 Gaussian 16:  ES64L-G16RevC.01  3-Jul-2019

 --------------------------------------------------------------
 # HF/6-31G* Opt=(Z-matrix,MaxCycles=100) Geom=PrintInputOrient
 --------------------------------------------------------------

 ------------------------------------------------------------------
 <qmtool> simtype="Geometry optimization" </qmtool> Q1H-ACC-O2-120b
 ------------------------------------------------------------------
 Symbolic Z-matrix:
 Charge = -1 Multiplicity = 2

 SCF Done:  E(UHF) =  -915.987134664     A.U. after   48 cycles
 SCF Done:  E(UHF) =  -916.002470441     A.U. after   34 cycles
 SCF Done:  E(UHF) =  -916.020779074     A.U. after   35 cycles
 SCF Done:  E(UHF) =  -916.039980781     A.U. after   39 cycles
 SCF Done:  E(UHF) =  -916.047470647     A.U. after   37 cycles
 SCF Done:  E(UHF) =  -916.047638629     A.U. after   34 cycles
 SCF Done:  E(UHF) =  -916.047727184     A.U. after   34 cycles
 SCF Done:  E(UHF) =  -916.047796056     A.U. after   20 cycles
 SCF Done:  E(UHF) =  -916.047302281     A.U. after   34 cycles
 SCF Done:  E(UHF) =  -916.048147888     A.U. after   36 cycles
 SCF Done:  E(UHF) =  -916.048209258     A.U. after   22 cycles
 SCF Done:  E(UHF) =  -916.048665651     A.U. after   37 cycles
 SCF Done:  E(UHF) =  -916.048290844     A.U. after   37 cycles
 SCF Done:  E(UHF) =  -916.048682489     A.U. after   26 cycles
 SCF Done:  E(UHF) =  -916.048713192     A.U. after   23 cycles
 SCF Done:  E(UHF) =  -916.048715057     A.U. after   20 cycles
 Optimization completed.
    -- Stationary point found.

                         Standard orientation:
 ---------------------------------------------------------------------
 Center     Atomic      Atomic             Coordinates (Angstroms)
 Number     Number       Type             X           Y           Z
 ---------------------------------------------------------------------
      1          6           0        0.127274   -1.376743   -0.818557
      2          6           0        0.474479   -2.796111   -1.191919
      3          6           0       -1.266361   -1.143846   -0.440627
      4          8           0       -2.127029   -2.061144   -0.434134
      5          6           0       -1.616090    0.227298   -0.082982
      6          8           0       -2.933292    0.540828    0.214560
      7          6           0       -0.678352    1.231697   -0.079101
      8          8           0       -1.041416    2.499862    0.338531
      9          6           0        0.696357    1.019687   -0.492564
     10          8           0        1.533959    1.992801   -0.551196
     11          6           0        1.045184   -0.349356   -0.833098
     12          6           0        2.491834   -0.556934   -1.195621
     13          1           0        1.105939   -3.279692   -0.437096
     14          1           0       -0.455492   -3.363416   -1.269244
     15          1           0        1.010712   -2.845625   -2.145483
     16          6           0       -3.420033   -0.131781    1.380007
     17          1           0       -3.345278   -1.212844    1.259124
     18          1           0       -2.862100    0.194903    2.268059
     19          1           0       -4.465250    0.170411    1.483944
     20          6           0       -1.146501    3.394472   -0.766590
     21          1           0       -1.926653    3.058336   -1.461295
     22          1           0       -1.428326    4.364650   -0.347928
     23          1           0       -0.185717    3.475497   -1.281191
     24          1           0        2.582818   -1.271012   -2.027570
     25          1           0        2.890629    0.401188   -1.535752
     26          6           0        3.264291   -1.089283   -0.019724
     27          1           0        3.093868   -2.142836    0.208529
     28          6           0        4.400925    1.062284    0.621512
     29          6           0        4.094434   -0.404368    0.779014
     30          1           0        5.378957    1.212639    0.141910
     31          1           0        3.622878    1.574316    0.051716
     32          6           0        4.802876   -1.088692    1.919122
     33          1           0        4.558548   -2.155356    1.962275
     34          1           0        5.892051   -0.988771    1.821060
     35          1           0        4.529444   -0.634104    2.880449
     36          1           0        4.456156    1.535999    1.609049
     37          1           0       -5.923995   -1.244351    0.584602
     38          8           0       -6.824911   -1.050549    0.826320
     39          1           0       -7.009578   -0.214274    0.408972
 ---------------------------------------------------------------------

 The electronic state is 2-A.
 Alpha  occ. eigenvalues --  -20.47578 -20.44673 -20.43611 -20.39522 -20.36227
 Alpha  occ. eigenvalues --  -11.15525 -11.15420 -11.14587 -11.14551 -11.13791
 Alpha  occ. eigenvalues --  -11.13671 -11.12279 -11.11728 -11.10648 -11.09946
 Alpha  occ. eigenvalues --  -11.09744 -11.09613 -11.09517 -11.09089  -1.26668
 Alpha  occ. eigenvalues --   -1.26052  -1.24309  -1.21504  -1.17365  -0.99576
 Alpha  occ. eigenvalues --   -0.97330  -0.91174  -0.88087  -0.83213  -0.82531
 Alpha  occ. eigenvalues --   -0.81475  -0.79193  -0.75868  -0.74114  -0.64457
 Alpha  occ. eigenvalues --   -0.63866  -0.62612  -0.59232  -0.57365  -0.54193
 Alpha  occ. eigenvalues --   -0.52979  -0.51627  -0.51357  -0.49489  -0.49231
 Alpha  occ. eigenvalues --   -0.48818  -0.48461  -0.48137  -0.47777  -0.46141
 Alpha  occ. eigenvalues --   -0.45260  -0.44850  -0.43159  -0.42623  -0.42217
 Alpha  occ. eigenvalues --   -0.41616  -0.41057  -0.40611  -0.40197  -0.39514
 Alpha  occ. eigenvalues --   -0.39104  -0.38161  -0.37456  -0.36543  -0.34877
 Alpha  occ. eigenvalues --   -0.33455  -0.31327  -0.27505  -0.26906  -0.25182
 Alpha  occ. eigenvalues --   -0.21673  -0.18535  -0.10296
 Alpha virt. eigenvalues --    0.27405   0.29644   0.30437   0.32677   0.33740
 Alpha virt. eigenvalues --    0.35633   0.37618   0.38301   0.39029   0.40192
 Alpha virt. eigenvalues --    0.40932   0.41311   0.42350   0.42840   0.43579

  Beta  occ. eigenvalues --  -20.47578 -20.44660 -20.43608 -20.37736 -20.34688
  Beta  occ. eigenvalues --  -11.15614 -11.15505 -11.14614 -11.14112 -11.13959
  Beta  occ. eigenvalues --  -11.13455 -11.12270 -11.11803 -11.10586 -11.09736
  Beta  occ. eigenvalues --  -11.09605 -11.09604 -11.09472 -11.09302  -1.26448
  Beta  occ. eigenvalues --   -1.26051  -1.24119  -1.17817  -1.14021  -0.99173
  Beta  occ. eigenvalues --   -0.96634  -0.90935  -0.87502  -0.82836  -0.82300
  Beta  occ. eigenvalues --   -0.81457  -0.78733  -0.74653  -0.73506  -0.63927
  Beta  occ. eigenvalues --   -0.63166  -0.62607  -0.59202  -0.57244  -0.53845
  Beta  occ. eigenvalues --   -0.52722  -0.51351  -0.50885  -0.49278  -0.49171
  Beta  occ. eigenvalues --   -0.48797  -0.48407  -0.48018  -0.47435  -0.45373
  Beta  occ. eigenvalues --   -0.44337  -0.43760  -0.42838  -0.42223  -0.41583
  Beta  occ. eigenvalues --   -0.41257  -0.40346  -0.39672  -0.39268  -0.38133
  Beta  occ. eigenvalues --   -0.37933  -0.36645  -0.35471  -0.34783  -0.32617
  Beta  occ. eigenvalues --   -0.31212  -0.29366  -0.25468  -0.24009  -0.21677
  Beta  occ. eigenvalues --   -0.18025  -0.16865
  Beta virt. eigenvalues --    0.20905   0.29306   0.29824   0.32405   0.33976
  Beta virt. eigenvalues --    0.35587   0.37317   0.38028   0.38716   0.39803
  Beta virt. eigenvalues --    0.40440   0.41090   0.41565   0.42435   0.43087

 Mulliken charges and spin densities:
               1          2
     1  C   -0.064022   0.271686
     2  C   -0.517750  -0.039630
     3  C    0.431830  -0.079069
     4  O   -0.678714   0.388188
     5  C    0.254634   0.238492
     6  O   -0.670836  -0.008000
     7  C    0.252375  -0.147994
     8  O   -0.658321   0.005706
     9  C    0.434877   0.174024
    10  O   -0.742667   0.314597
    11  C   -0.061077  -0.135019
    12  C   -0.391524   0.003696
    13  H    0.144571   0.011585
    14  H    0.207704   0.001091
    15  H    0.140720   0.008353
    16  C   -0.182110   0.002636
    17  H    0.196352  -0.000804
    18  H    0.142763  -0.000085
    19  H    0.134466   0.000430
    20  C   -0.156356  -0.004005
    21  H    0.131621  -0.000493
    22  H    0.131832  -0.000050
    23  H    0.190751  -0.000354
    24  H    0.145837  -0.000748
    25  H    0.212674  -0.001328
    26  C   -0.192782   0.037888
    27  H    0.152194  -0.002485
    28  C   -0.547362   0.004964
    29  C    0.076527  -0.040424
    30  H    0.125639  -0.001533
    31  H    0.273549  -0.002379
    32  C   -0.498615   0.004876
    33  H    0.151685  -0.000214
    34  H    0.137143  -0.001289
    35  H    0.150253  -0.001398
    36  H    0.136891  -0.000918
    37  H    0.462066  -0.000002
    38  O   -0.888653   0.000005
    39  H    0.431835   0.000003
 Sum of Mulliken charges =  -1.00000   1.00000

 Dipole moment (field-independent basis, Debye):
    X=              2.1776    Y=             -0.1800    Z=             -0.1145  Tot=              2.1880
 Quadrupole moment (field-independent basis, Debye-Ang):
   XX=           -164.6451   YY=           -137.9150   ZZ=           -119.9342
   XY=            -20.3732   XZ=              6.4638   YZ=             -2.5782

 Normal termination of Gaussian 16 at Tue Oct 26 23:29:43 2021.
