 Gaussian 16, Revision C.01,
 Gaussian 16:  ES64L-G16RevC.01  3-Jul-2019

 --------------------------------------------------------------
 # HF/6-31G* Opt=(Z-matrix,MaxCycles=100) Geom=PrintInputOrient
 --------------------------------------------------------------

 ------------------------------------------------------------------
 <qmtool> simtype="Geometry optimization" </qmtool> Q1H-ACC-O2-120a
 ------------------------------------------------------------------
 Symbolic Z-matrix:
 Charge = -1 Multiplicity = 2

 SCF Done:  E(UHF) =  -916.015862305     A.U. after   48 cycles
 SCF Done:  E(UHF) =  -916.025975418     A.U. after   34 cycles
 SCF Done:  E(UHF) =  -916.038651998     A.U. after   37 cycles
 SCF Done:  E(UHF) =  -916.047016317     A.U. after   40 cycles
 SCF Done:  E(UHF) =  -916.048310774     A.U. after   36 cycles
 SCF Done:  E(UHF) =  -916.048653434     A.U. after   26 cycles
 SCF Done:  E(UHF) =  -916.048706588     A.U. after   26 cycles
 SCF Done:  E(UHF) =  -916.048713523     A.U. after   17 cycles
 SCF Done:  E(UHF) =  -916.048369286     A.U. after   38 cycles
 SCF Done:  E(UHF) =  -916.048736860     A.U. after   37 cycles
 SCF Done:  E(UHF) =  -916.048761461     A.U. after   22 cycles
 SCF Done:  E(UHF) =  -916.048765666     A.U. after   33 cycles
 SCF Done:  E(UHF) =  -916.048765770     A.U. after   17 cycles
 Optimization completed.
    -- Stationary point found.

                         Standard orientation:
 ---------------------------------------------------------------------
 Center     Atomic      Atomic             Coordinates (Angstroms)
 Number     Number       Type             X           Y           Z
 ---------------------------------------------------------------------
      1          6           0        0.464279    1.055274   -0.473844
      2          6           0        0.323908    2.544664   -0.665080
      3          6           0        1.772704    0.596854   -0.007832
      4          8           0        2.726433    1.386908    0.212264
      5          6           0        1.922778   -0.843361    0.175235
      6          8           0        3.155304   -1.360393    0.543217
      7          6           0        0.881885   -1.710508   -0.054509
      8          8           0        1.050321   -3.059317    0.203982
      9          6           0       -0.406357   -1.270260   -0.556845
     10          8           0       -1.337983   -2.111102   -0.834369
     11          6           0       -0.557645    0.165474   -0.723286
     12          6           0       -1.922987    0.603742   -1.182708
     13          1           0       -0.326854    2.999286    0.091344
     14          1           0        1.315325    2.993206   -0.572552
     15          1           0       -0.095970    2.790348   -1.646213
     16          6           0        3.585502   -0.918686    1.834499
     17          1           0        3.648077    0.169390    1.867283
     18          1           0        2.900469   -1.287561    2.609941
     19          1           0        4.571856   -1.363652    1.988488
     20          6           0        1.172658   -3.803180   -1.006128
     21          1           0        2.057118   -3.479524   -1.569347
     22          1           0        1.294721   -4.848912   -0.710336
     23          1           0        0.270792   -3.690348   -1.613082
     24          1           0       -1.840713    1.428947   -1.905614
     25          1           0       -2.388892   -0.240789   -1.694981
     26          6           0       -2.753346    1.067733   -0.017360
     27          1           0       -2.489876    2.050372    0.377762
     28          6           0       -4.190900   -0.986811    0.193946
     29          6           0       -3.738268    0.393794    0.592528
     30          1           0       -5.121516   -0.944596   -0.390299
     31          1           0       -3.418808   -1.513076   -0.370961
     32          6           0       -4.484190    1.003715    1.750816
     33          1           0       -4.126058    2.014653    1.972346
     34          1           0       -5.560420    1.058423    1.539545
     35          1           0       -4.370836    0.392677    2.655995
     36          1           0       -4.407132   -1.578013    1.091949
     37          1           0        2.289884    4.828501   -0.249309
     38          8           0        2.171047    5.765372   -0.374958
     39          1           0        1.257731    5.858260   -0.629641
 ---------------------------------------------------------------------

 The electronic state is 2-A.
 Alpha  occ. eigenvalues --  -20.46964 -20.44329 -20.43623 -20.39613 -20.36559
 Alpha  occ. eigenvalues --  -11.15615 -11.15016 -11.14635 -11.14558 -11.14019
 Alpha  occ. eigenvalues --  -11.13758 -11.12501 -11.12026 -11.10934 -11.10675
 Alpha  occ. eigenvalues --  -11.10268 -11.10078 -11.09834 -11.09502  -1.26476
 Alpha  occ. eigenvalues --   -1.25457  -1.24235  -1.21544  -1.17657  -0.99905
 Alpha  occ. eigenvalues --   -0.97604  -0.91331  -0.88592  -0.83307  -0.82645
 Alpha  occ. eigenvalues --   -0.81644  -0.79140  -0.76190  -0.74309  -0.64672
 Alpha  occ. eigenvalues --   -0.64023  -0.62013  -0.59505  -0.57532  -0.54088
 Alpha  occ. eigenvalues --   -0.52971  -0.51741  -0.51107  -0.49581  -0.48882
 Alpha  occ. eigenvalues --   -0.48823  -0.48558  -0.48219  -0.47871  -0.46532
 Alpha  occ. eigenvalues --   -0.45553  -0.45117  -0.43475  -0.42971  -0.42568
 Alpha  occ. eigenvalues --   -0.41350  -0.40955  -0.40909  -0.40698  -0.39670
 Alpha  occ. eigenvalues --   -0.39322  -0.38141  -0.37743  -0.36775  -0.35153
 Alpha  occ. eigenvalues --   -0.33232  -0.31362  -0.27721  -0.26967  -0.25440
 Alpha  occ. eigenvalues --   -0.21937  -0.18695  -0.10502
 Alpha virt. eigenvalues --    0.27173   0.29530   0.30192   0.32403   0.33586
 Alpha virt. eigenvalues --    0.35573   0.37534   0.38027   0.38645   0.39207
 Alpha virt. eigenvalues --    0.39880   0.40978   0.41699   0.42305   0.43041

  Beta  occ. eigenvalues --  -20.46964 -20.44315 -20.43621 -20.37846 -20.34999
  Beta  occ. eigenvalues --  -11.15793 -11.14997 -11.14585 -11.14205 -11.14046
  Beta  occ. eigenvalues --  -11.13715 -11.12494 -11.12084 -11.10883 -11.10748
  Beta  occ. eigenvalues --  -11.10075 -11.09840 -11.09828 -11.09658  -1.26271
  Beta  occ. eigenvalues --   -1.25457  -1.23987  -1.17950  -1.14272  -0.99470
  Beta  occ. eigenvalues --   -0.96923  -0.91072  -0.88046  -0.83055  -0.82335
  Beta  occ. eigenvalues --   -0.81525  -0.78729  -0.75014  -0.73651  -0.64109
  Beta  occ. eigenvalues --   -0.63344  -0.62011  -0.59468  -0.57402  -0.53761
  Beta  occ. eigenvalues --   -0.52702  -0.51521  -0.50572  -0.49423  -0.48739
  Beta  occ. eigenvalues --   -0.48715  -0.48525  -0.48093  -0.47510  -0.45741
  Beta  occ. eigenvalues --   -0.45054  -0.43951  -0.43079  -0.42778  -0.41528
  Beta  occ. eigenvalues --   -0.40952  -0.40658  -0.40081  -0.39398  -0.38142
  Beta  occ. eigenvalues --   -0.38066  -0.36937  -0.35715  -0.34921  -0.32557
  Beta  occ. eigenvalues --   -0.31194  -0.29529  -0.25567  -0.24268  -0.21945
  Beta  occ. eigenvalues --   -0.18196  -0.17038
  Beta virt. eigenvalues --    0.20687   0.29179   0.29661   0.32041   0.33775
  Beta virt. eigenvalues --    0.35521   0.37316   0.37914   0.38097   0.38801
  Beta virt. eigenvalues --    0.39917   0.40456   0.41212   0.41937   0.42398

 Mulliken charges and spin densities:
               1          2
     1  C   -0.062700   0.249339
     2  C   -0.529928  -0.037709
     3  C    0.433859  -0.070592
     4  O   -0.681522   0.383158
     5  C    0.258774   0.233167
     6  O   -0.665777  -0.007523
     7  C    0.252263  -0.151708
     8  O   -0.657667   0.005873
     9  C    0.434624   0.163057
    10  O   -0.739247   0.319897
    11  C   -0.057525  -0.100936
    12  C   -0.392396   0.000909
    13  H    0.146660   0.010942
    14  H    0.186718   0.000956
    15  H    0.145809   0.007917
    16  C   -0.163920   0.002465
    17  H    0.198225  -0.000747
    18  H    0.133020  -0.000067
    19  H    0.135116   0.000419
    20  C   -0.157036  -0.004105
    21  H    0.134386  -0.000462
    22  H    0.132307  -0.000062
    23  H    0.189347  -0.000331
    24  H    0.144436  -0.000292
    25  H    0.214358  -0.001059
    26  C   -0.192991   0.029709
    27  H    0.149788  -0.001882
    28  C   -0.547724   0.003841
    29  C    0.077518  -0.031477
    30  H    0.126623  -0.001159
    31  H    0.273454  -0.002348
    32  C   -0.498953   0.003755
    33  H    0.151513  -0.000165
    34  H    0.138088  -0.000999
    35  H    0.151230  -0.001059
    36  H    0.137900  -0.000711
    37  H    0.472080  -0.000001
    38  O   -0.900455  -0.000004
    39  H    0.429745  -0.000005
 Sum of Mulliken charges =  -1.00000   1.00000

 Dipole moment (field-independent basis, Debye):
    X=             -3.7787    Y=              1.1009    Z=              0.4026  Tot=              3.9563
 Quadrupole moment (field-independent basis, Debye-Ang):
   XX=           -153.5818   YY=           -156.3013   ZZ=           -116.9406
   XY=            -20.8123   XZ=             -0.0404   YZ=             -0.4902

 Normal termination of Gaussian 16 at Tue Oct 26 23:24:20 2021.
