 Gaussian 16, Revision C.01,
 Gaussian 16:  ES64L-G16RevC.01  3-Jul-2019

 --------------------------------------------------------------
 # HF/6-31G* Opt=(Z-matrix,MaxCycles=100) Geom=PrintInputOrient
 --------------------------------------------------------------

 -------------------------------------------------------------
 <qmtool> simtype="Geometry optimization" </qmtool> Q1H-ACC-O3
 -------------------------------------------------------------
 Symbolic Z-matrix:
 Charge = -1 Multiplicity = 2

 SCF Done:  E(UHF) =  -916.055942618     A.U. after   46 cycles
 SCF Done:  E(UHF) =  -916.056430537     A.U. after   36 cycles
 SCF Done:  E(UHF) =  -916.056757014     A.U. after   35 cycles
 SCF Done:  E(UHF) =  -916.056965638     A.U. after   36 cycles
 SCF Done:  E(UHF) =  -916.056970898     A.U. after   33 cycles
 SCF Done:  E(UHF) =  -916.056972110     A.U. after   19 cycles
 SCF Done:  E(UHF) =  -916.056972807     A.U. after   19 cycles
 SCF Done:  E(UHF) =  -916.056970201     A.U. after   33 cycles
 SCF Done:  E(UHF) =  -916.056973193     A.U. after    8 cycles
 Optimization completed.
    -- Stationary point found.

                         Standard orientation:
 ---------------------------------------------------------------------
 Center     Atomic      Atomic             Coordinates (Angstroms)
 Number     Number       Type             X           Y           Z
 ---------------------------------------------------------------------
      1          6           0       -0.264786    1.588954   -0.652191
      2          6           0       -0.884688    2.902551   -1.058072
      3          6           0        1.091816    1.668843   -0.111320
      4          8           0        1.710931    2.757900    0.002162
      5          6           0        1.704843    0.403246    0.279474
      6          8           0        3.015478    0.389773    0.731033
      7          6           0        1.030168   -0.788508    0.166684
      8          8           0        1.625396   -1.952772    0.619087
      9          6           0       -0.299229   -0.883260   -0.407294
     10          8           0       -0.877164   -2.019690   -0.570031
     11          6           0       -0.912873    0.379952   -0.781002
     12          6           0       -2.316629    0.262818   -1.313030
     13          1           0       -1.693440    3.204652   -0.382051
     14          1           0       -0.108185    3.669580   -1.021076
     15          1           0       -1.304187    2.858582   -2.068700
     16          6           0        3.196085    1.118295    1.949320
     17          1           0        2.888347    2.156942    1.825183
     18          1           0        2.629972    0.644563    2.762796
     19          1           0        4.263661    1.059861    2.176183
     20          6           0        2.060850   -2.763947   -0.469508
     21          1           0        2.817172   -2.236392   -1.064403
     22          1           0        2.508707   -3.656871   -0.024470
     23          1           0        1.210653   -3.045981   -1.095692
     24          1           0       -2.473332    0.963366   -2.146698
     25          1           0       -2.441596   -0.749740   -1.702688
     26          6           0       -3.321436    0.566706   -0.235610
     27          1           0       -3.426225    1.623488    0.016083
     28          6           0       -3.997089   -1.807046    0.255468
     29          6           0       -4.057577   -0.314958    0.455037
     30          1           0       -4.851989   -2.161597   -0.338341
     31          1           0       -3.061492   -2.109227   -0.219450
     32          6           0       -5.031477    0.152576    1.505260
     33          1           0       -5.046533    1.244914    1.582082
     34          1           0       -6.049411   -0.190481    1.277178
     35          1           0       -4.773306   -0.257912    2.490355
     36          1           0       -4.055065   -2.312106    1.227187
     37          1           0        4.477444   -0.536162   -0.207075
     38          8           0        5.188360   -0.986420   -0.663252
     39          1           0        5.196933   -0.597146   -1.537680
 ---------------------------------------------------------------------

 The electronic state is 2-A.
 Alpha  occ. eigenvalues --  -20.45937 -20.43645 -20.43277 -20.39362 -20.36918
 Alpha  occ. eigenvalues --  -11.15708 -11.15635 -11.14794 -11.14300 -11.14067
 Alpha  occ. eigenvalues --  -11.14019 -11.12413 -11.11908 -11.10814 -11.10139
 Alpha  occ. eigenvalues --  -11.09960 -11.09775 -11.09686 -11.09429  -1.27481
 Alpha  occ. eigenvalues --   -1.24606  -1.21760  -1.21468  -1.17942  -0.99805
 Alpha  occ. eigenvalues --   -0.97535  -0.91453  -0.88270  -0.83459  -0.82707
 Alpha  occ. eigenvalues --   -0.81362  -0.79396  -0.75972  -0.74355  -0.64841
 Alpha  occ. eigenvalues --   -0.64167  -0.59560  -0.58752  -0.57471  -0.54530
 Alpha  occ. eigenvalues --   -0.53035  -0.51880  -0.51642  -0.49617  -0.49131
 Alpha  occ. eigenvalues --   -0.48653  -0.48252  -0.47773  -0.46210  -0.45659
 Alpha  occ. eigenvalues --   -0.45234  -0.44750  -0.43327  -0.42779  -0.42296
 Alpha  occ. eigenvalues --   -0.41237  -0.40878  -0.40438  -0.39869  -0.39380
 Alpha  occ. eigenvalues --   -0.38297  -0.37890  -0.37174  -0.36622  -0.35071
 Alpha  occ. eigenvalues --   -0.34097  -0.31347  -0.27810  -0.27044  -0.25652
 Alpha  occ. eigenvalues --   -0.21873  -0.18865  -0.10585
 Alpha virt. eigenvalues --    0.27117   0.30172   0.32351   0.33251   0.33602
 Alpha virt. eigenvalues --    0.35488   0.37987   0.38616   0.40021   0.40274
 Alpha virt. eigenvalues --    0.40936   0.41534   0.42257   0.42496   0.43500

  Beta  occ. eigenvalues --  -20.45931 -20.43642 -20.43277 -20.37624 -20.35292
  Beta  occ. eigenvalues --  -11.15793 -11.15695 -11.14520 -11.14375 -11.14037
  Beta  occ. eigenvalues --  -11.13823 -11.12405 -11.11972 -11.10758 -11.09957
  Beta  occ. eigenvalues --  -11.09778 -11.09768 -11.09718 -11.09585  -1.27275
  Beta  occ. eigenvalues --   -1.24480  -1.21679  -1.17898  -1.14411  -0.99372
  Beta  occ. eigenvalues --   -0.96861  -0.91215  -0.87703  -0.83026  -0.82529
  Beta  occ. eigenvalues --   -0.81331  -0.78863  -0.74728  -0.73843  -0.64346
  Beta  occ. eigenvalues --   -0.63469  -0.59532  -0.58707  -0.57340  -0.54198
  Beta  occ. eigenvalues --   -0.52801  -0.51538  -0.51218  -0.49395  -0.48995
  Beta  occ. eigenvalues --   -0.48627  -0.48217  -0.47411  -0.45620  -0.45001
  Beta  occ. eigenvalues --   -0.44439  -0.43969  -0.42970  -0.42411  -0.41431
  Beta  occ. eigenvalues --   -0.40549  -0.39901  -0.39631  -0.38290  -0.38200
  Beta  occ. eigenvalues --   -0.37196  -0.36901  -0.35633  -0.35129  -0.33118
  Beta  occ. eigenvalues --   -0.31360  -0.29491  -0.25596  -0.24404  -0.21862
  Beta  occ. eigenvalues --   -0.18361  -0.17008
  Beta virt. eigenvalues --    0.20638   0.29318   0.31932   0.33297   0.33812
  Beta virt. eigenvalues --    0.35455   0.37306   0.38606   0.39268   0.40081
  Beta virt. eigenvalues --    0.40687   0.41172   0.41671   0.42397   0.42664

 Mulliken charges and spin densities:
               1          2
     1  C   -0.065541   0.242047
     2  C   -0.517903  -0.035876
     3  C    0.436205  -0.060547
     4  O   -0.681228   0.376405
     5  C    0.247340   0.182932
     6  O   -0.702966  -0.006812
     7  C    0.264470  -0.083929
     8  O   -0.659569   0.003111
     9  C    0.430564   0.141452
    10  O   -0.730013   0.336570
    11  C   -0.058310  -0.109454
    12  C   -0.392130   0.001637
    13  H    0.144897   0.010428
    14  H    0.208623   0.000907
    15  H    0.140846   0.007576
    16  C   -0.168073   0.001407
    17  H    0.205499  -0.000620
    18  H    0.141482  -0.000201
    19  H    0.143373   0.000576
    20  C   -0.165837  -0.002750
    21  H    0.143218  -0.000507
    22  H    0.138315   0.000087
    23  H    0.184142  -0.000448
    24  H    0.146916  -0.000421
    25  H    0.212964  -0.001164
    26  C   -0.193323   0.032865
    27  H    0.152627  -0.002127
    28  C   -0.547207   0.004325
    29  C    0.076715  -0.034849
    30  H    0.126713  -0.001308
    31  H    0.272387  -0.002448
    32  C   -0.498810   0.004184
    33  H    0.151841  -0.000183
    34  H    0.137749  -0.001110
    35  H    0.150682  -0.001189
    36  H    0.137833  -0.000791
    37  H    0.505752   0.000189
    38  O   -0.934415   0.000050
    39  H    0.414172  -0.000014
 Sum of Mulliken charges =  -1.00000   1.00000

 Dipole moment (field-independent basis, Debye):
    X=             -3.4464    Y=              1.5565    Z=             -0.1967  Tot=              3.7867
 Quadrupole moment (field-independent basis, Debye-Ang):
   XX=           -157.9051   YY=           -143.9511   ZZ=           -114.0755
   XY=             -1.7074   XZ=             -3.6681   YZ=              2.4106

 Normal termination of Gaussian 16 at Tue Oct 26 23:17:28 2021.
